#INFO: **** input file is /insomnia001/depts/berkelbach/users/eav2136/projects/excited_fno/water_canon.py ****
#!/usr/bin/env python3
from pyscf import gto, scf, mp, cc
from pyscf.cc.eom_rccsd import EOMIP, EOMEA, EOMEESinglet
import numpy as np
from functools import reduce

mol = gto.Mole()
mol.atom = '''
    O   0.0000000   0.0000000   0.1177930
    H   0.0000000   0.7554150   -0.4711740
    H   0.0000000   -0.7554150  -0.4711740
'''
mol.basis = 'ccpvtz'
mol.verbose = 7
mol.build()

mymf = scf.RHF(mol)
mymf = mymf.density_fit()
mymf.kernel()

mymp = mp.RMP2(mymf)
emp2, t2 = mymp.kernel()
dm = mymp.make_rdm1(t2=t2)

nocc = mymp.nocc
nmo = mymp.nmo
nvir = nmo - nocc
mo_energy = mymf.mo_energy
mo_coeff = mymf.mo_coeff

results = []
for nvir_act in range(1, nvir):
    frozen = list(range(nocc+nvir_act, nmo))
    mycc = cc.RCCSD(mymf, frozen=frozen)
    eris = mycc.ao2mo()
    eccsd, t1, t2 = mycc.kernel(eris=eris)

    myeom = EOMIP(mycc)
    ipe, ipv = myeom.kernel(eris=eris)
    myeom = EOMEA(mycc)
    eae, eav = myeom.kernel(eris=eris)
    myeom = EOMEESinglet(mycc)
    eee, eev = myeom.kernel(eris=eris)
    results.append((nvir_act, ipe, eae, eee))

mycc = cc.RCCSD(mymf)
eris = mycc.ao2mo()
eccsd, t1, t2 = mycc.kernel()
myeom = EOMIP(mycc)
ipe, ipv = myeom.kernel(eris=eris)
myeom = EOMEA(mycc)
eae, eav = myeom.kernel(eris=eris)
myeom = EOMEESinglet(mycc)
eee, eev = myeom.kernel(eris=eris)
results.append((nvir, ipe, eae, eee))

# Save the results
with open('water_canon.dat', 'w') as f:
    f.write('nvir_act ipe eae eee\n')
    for r in results:
        f.write('%d %f %f %f\n' % r)

# Print the results
for r in results:
    print('%d %f %f %f' % r)

#INFO: ******************** input file end ********************


System: uname_result(system='Linux', node='2402-node0025', release='5.14.0-362.18.1.el9_3.x86_64', version='#1 SMP PREEMPT_DYNAMIC Wed Jan 3 15:54:45 EST 2024', machine='x86_64')  Threads 40
Python 3.11.9 (main, Jun  6 2024, 15:06:21) [GCC 14.1.0]
numpy 1.26.4  scipy 1.13.1  h5py 3.11.0
Date: Thu Aug  1 17:55:01 2024
PySCF version 2.6.2
PySCF path  /insomnia001/depts/berkelbach/users/eav2136/build/pyscf/develop/pyscf
GIT HEAD (branch master) ca8c7c1680defdfee2380eda3af3a28d9fb375cb

[ENV] PYSCF_MAX_MEMORY 1000000
[CONFIG] ARGPARSE = False
[CONFIG] DEBUG = False
[CONFIG] MAX_MEMORY = 1000000
[CONFIG] TMPDIR = /tmp
[CONFIG] UNIT = angstrom
[CONFIG] VERBOSE = 3
[CONFIG] conf_file = None
[INPUT] verbose = 7
[INPUT] max_memory = 1000000 
[INPUT] num. atoms = 3
[INPUT] num. electrons = 10
[INPUT] charge = 0
[INPUT] spin (= nelec alpha-beta = 2S) = 0
[INPUT] symmetry False subgroup None
[INPUT] Mole.unit = angstrom
[INPUT] Symbol           X                Y                Z      unit          X                Y                Z       unit  Magmom
[INPUT]  1 O      0.000000000000   0.000000000000   0.117793000000 AA    0.000000000000   0.000000000000   0.222596509391 Bohr   0.0
[INPUT]  2 H      0.000000000000   0.755415000000  -0.471174000000 AA    0.000000000000   1.427527460388  -0.890389817016 Bohr   0.0
[INPUT]  3 H      0.000000000000  -0.755415000000  -0.471174000000 AA    0.000000000000  -1.427527460388  -0.890389817016 Bohr   0.0
[INPUT] ---------------- BASIS SET ---------------- 
[INPUT] l, kappa, [nprim/nctr], expnt,             c_1 c_2 ...
[INPUT] O
[INPUT] 0    0    [8    /2   ]  15330             0.000508 -0.000115
                                2299              0.003929 -0.000895
                                522.4             0.020243 -0.004636
                                147.3             0.079181 -0.018724
                                47.55             0.230687 -0.058463
                                16.76             0.433118 -0.136463
                                6.207             0.35026 -0.17574
                                0.6882            -0.008154 0.603418
[INPUT] 0    0    [1    /1   ]  1.752                1
[INPUT] 0    0    [1    /1   ]  0.2384               1
[INPUT] 1    0    [3    /1   ]  34.46             0.015928
                                7.749             0.09974
                                2.28              0.310492
[INPUT] 1    0    [1    /1   ]  0.7156               1
[INPUT] 1    0    [1    /1   ]  0.214                1
[INPUT] 2    0    [1    /1   ]  2.314                1
[INPUT] 2    0    [1    /1   ]  0.645                1
[INPUT] 3    0    [1    /1   ]  1.428                1
[INPUT] H
[INPUT] 0    0    [3    /1   ]  33.87             0.006068
                                5.095             0.045308
                                1.159             0.202822
[INPUT] 0    0    [1    /1   ]  0.3258               1
[INPUT] 0    0    [1    /1   ]  0.1027               1
[INPUT] 1    0    [1    /1   ]  1.407                1
[INPUT] 1    0    [1    /1   ]  0.388                1
[INPUT] 2    0    [1    /1   ]  1.057                1

nuclear repulsion = 9.18939660749144
number of shells = 21
number of NR pGTOs = 74
number of NR cGTOs = 58
basis = ccpvtz
ecp = {}
bas 0, expnt(s) = [1.533e+04 2.299e+03 5.224e+02 1.473e+02 4.755e+01 1.676e+01 6.207e+00
 6.882e-01]
bas 1, expnt(s) = [1.752]
bas 2, expnt(s) = [0.2384]
bas 3, expnt(s) = [34.46   7.749  2.28 ]
bas 4, expnt(s) = [0.7156]
bas 5, expnt(s) = [0.214]
bas 6, expnt(s) = [2.314]
bas 7, expnt(s) = [0.645]
bas 8, expnt(s) = [1.428]
bas 9, expnt(s) = [33.87   5.095  1.159]
bas 10, expnt(s) = [0.3258]
bas 11, expnt(s) = [0.1027]
bas 12, expnt(s) = [1.407]
bas 13, expnt(s) = [0.388]
bas 14, expnt(s) = [1.057]
bas 15, expnt(s) = [33.87   5.095  1.159]
bas 16, expnt(s) = [0.3258]
bas 17, expnt(s) = [0.1027]
bas 18, expnt(s) = [1.407]
bas 19, expnt(s) = [0.388]
bas 20, expnt(s) = [1.057]
CPU time:         0.29


******** <class 'pyscf.df.df_jk.DFRHF'> ********
method = DFRHF
initial guess = minao
damping factor = 0
level_shift factor = 0
DIIS = <class 'pyscf.scf.diis.CDIIS'>
diis_start_cycle = 1
diis_space = 8
diis_damp = 0
SCF conv_tol = 1e-09
SCF conv_tol_grad = None
SCF max_cycles = 50
direct_scf = False
chkfile to save SCF result = /tmp/tmp0jfv8cll
max_memory 1000000 MB (current use 65 MB)
cond(S) = 2042.2665713280383
Set gradient conv threshold to 3.16228e-05
Initial guess from minao.
Nelec from initial guess = 9.995443437972469
******** <class 'pyscf.df.df.DF'> ********
auxbasis = None
max_memory = 1000000
Default auxbasis cc-pvtz-jkfit is used for O ccpvtz
Default auxbasis cc-pvtz-jkfit is used for H ccpvtz
num shells = 45, num cGTOs = 139
size of aux basis 139
    CPU time for 2c2e      0.07 sec, wall time      0.00 sec
shranges = [(0, 21, 1711)]
int3c2e [1/1], AO [0:21], nrow = 1711
    CPU time for cholesky_eri      0.15 sec, wall time      0.00 sec
    CPU time for jk      0.35 sec, wall time      0.01 sec
    CPU time for df vj and vk      0.35 sec, wall time      0.01 sec
E1 = -121.6917940820865  E_coul = 36.62326773696756
init E= -75.8791297376275
    CPU time for initialize scf      0.74 sec, wall time      0.03 sec
  HOMO = -0.478479884030113  LUMO = 0.0772846840116738
  mo_energy =
[-20.77887264  -1.62048295  -0.75231669  -0.59084283  -0.47847988
   0.07728468   0.1702445    0.478116     0.54589943   0.60067644
   0.70510125   0.73025236   0.76805905   0.845398     0.92514459
   1.03662409   1.19458801   1.48506232   1.51892241   1.9387172
   1.96541729   1.99349531   2.08745861   2.12892822   2.54414349
   2.89457268   3.31824461   3.46128239   3.56310279   3.64857712
   3.69023769   3.83629514   3.89535794   3.94560854   3.99841304
   4.03278774   4.11017825   4.27805614   4.32161539   4.56486742
   4.57759203   4.81026479   5.0684071    5.13387592   5.39828519
   5.91229662   6.45657024   6.75494989   6.76795544   6.85203899
   6.8713866    6.93373936   7.00552064   7.09874762   7.29840068
   7.65111327   8.16314766  12.73471292]
    CPU time for jk      0.04 sec, wall time      0.00 sec
    CPU time for df vj and vk      0.04 sec, wall time      0.00 sec
E1 = -124.05933872893954  E_coul = 38.84952644421095
cycle= 1 E= -76.0204156772371  delta_E= -0.141  |g|= 0.443  |ddm|=    1
    CPU time for cycle= 1      0.16 sec, wall time      0.00 sec
diis-norm(errvec)=0.627069
diis-c [-0.39321503  1.        ]
  HOMO = -0.428817430615293  LUMO = 0.141325260027507
  mo_energy =
[-20.32666175  -1.28250078  -0.66380882  -0.50368777  -0.42881743
   0.14132526   0.20228066   0.55047436   0.59990485   0.69380101
   0.80089707   0.82609731   0.83068844   0.8561213    0.95573374
   1.18136738   1.18829059   1.53800599   1.57707154   2.0764397
   2.08005326   2.10903062   2.20067248   2.28362212   2.58616549
   2.97936058   3.34696562   3.47775497   3.56300484   3.63712355
   3.83415631   3.85568537   3.87237493   3.94282853   4.0287027
   4.086482     4.21429605   4.31220034   4.42723458   4.58981693
   4.7415189    4.88346318   5.19555754   5.31722792   5.59579287
   6.12607637   6.6316209    7.01045431   7.05903832   7.11320818
   7.11539745   7.12724281   7.287219     7.316626     7.56112396
   7.88040419   8.36718344  12.95754848]
    CPU time for jk      0.04 sec, wall time      0.00 sec
    CPU time for df vj and vk      0.04 sec, wall time      0.00 sec
E1 = -122.41059853381577  E_coul = 37.17390207989797
cycle= 2 E= -76.0472998464264  delta_E= -0.0269  |g|= 0.253  |ddm|= 0.314
    CPU time for cycle= 2      0.12 sec, wall time      0.00 sec
diis-norm(errvec)=0.358282
diis-c [-0.0167592   0.35253647  0.64746353]
  HOMO = -0.50972302267373  LUMO = 0.138446634895742
  mo_energy =
[-20.57614362  -1.35526094  -0.71877503  -0.58360105  -0.50972302
   0.13844663   0.20033853   0.53755748   0.59589235   0.66603727
   0.78491302   0.79319447   0.80175405   0.85534876   0.94883214
   1.13132279   1.19263488   1.51726651   1.55701836   2.03344602
   2.04891453   2.05994739   2.16461952   2.23057677   2.57638333
   2.95440348   3.34243913   3.47907177   3.57256134   3.64706823
   3.78842882   3.86544737   3.87347675   3.95149846   4.0072012
   4.06351711   4.18083761   4.30170331   4.3752308    4.57802742
   4.67578935   4.85315276   5.14714471   5.24405853   5.5196461
   6.04853545   6.56585218   6.91641213   6.93661317   7.00162465
   7.0133421    7.0482517    7.16863978   7.23422592   7.45020497
   7.79029218   8.27999646  12.85158437]
    CPU time for jk      0.00 sec, wall time      0.00 sec
    CPU time for df vj and vk      0.00 sec, wall time      0.00 sec
E1 = -123.1499939452122  E_coul = 37.90366863631635
cycle= 3 E= -76.0569287014044  delta_E= -0.00963  |g|= 0.0245  |ddm|= 0.0967
    CPU time for cycle= 3      0.16 sec, wall time      0.00 sec
diis-norm(errvec)=0.0346732
diis-c [-8.70618600e-04 -6.13435286e-03  3.98463108e-02  9.66288042e-01]
  HOMO = -0.503302666960144  LUMO = 0.142196829204611
  mo_energy =
[-20.55342997  -1.34507623  -0.70904019  -0.57803337  -0.50330267
   0.14219683   0.20370262   0.54300483   0.60330679   0.66839515
   0.78815871   0.7986049    0.80527397   0.86167241   0.95348289
   1.13286969   1.19768614   1.52504065   1.56627296   2.03901522
   2.05346958   2.06525426   2.17235788   2.23475782   2.58721852
   2.96418227   3.35226126   3.4889889    3.58539603   3.65772105
   3.8004071    3.87834565   3.88492369   3.96227989   4.01788663
   4.07452556   4.19254128   4.31102533   4.38307809   4.58944868
   4.68586111   4.86468376   5.16029459   5.25336958   5.52967199
   6.05810343   6.57810455   6.92789509   6.94928418   7.00930776
   7.02767844   7.05792771   7.17809663   7.24198366   7.45948272
   7.79918561   8.29600778  12.86704493]
    CPU time for jk      0.04 sec, wall time      0.00 sec
    CPU time for df vj and vk      0.04 sec, wall time      0.00 sec
E1 = -123.10409093451405  E_coul = 37.857617361324266
cycle= 4 E= -76.0570769656983  delta_E= -0.000148  |g|= 0.006  |ddm|= 0.0184
    CPU time for cycle= 4      0.12 sec, wall time      0.00 sec
diis-norm(errvec)=0.00848682
diis-c [-3.31343616e-05 -1.43952735e-02 -3.41504555e-02 -9.89154993e-02
  1.14746123e+00]
  HOMO = -0.504285089899458  LUMO = 0.142248961030202
  mo_energy =
[-20.5549908   -1.34560749  -0.70889444  -0.57828496  -0.50428509
   0.14224896   0.20403201   0.54337233   0.60348469   0.66832971
   0.78761865   0.79881843   0.80560338   0.86193921   0.95366361
   1.13291777   1.19805099   1.52551291   1.56631044   2.0389703
   2.05352187   2.06533913   2.17241173   2.23455649   2.58803416
   2.9649248    3.3528904    3.48964143   3.58580665   3.65853244
   3.800364     3.87900842   3.88609607   3.96340187   4.01866285
   4.07533349   4.19308351   4.31162748   4.38374782   4.59015652
   4.68559767   4.86514265   5.16020532   5.25348956   5.52941636
   6.05770419   6.57783425   6.92755091   6.94850769   7.00918653
   7.02682346   7.0579159    7.17792094   7.24209083   7.45936082
   7.79945482   8.29574631  12.86660993]
    CPU time for jk      0.00 sec, wall time      0.00 sec
    CPU time for df vj and vk      0.00 sec, wall time      0.00 sec
E1 = -123.10879347336021  E_coul = 37.86230458440218
cycle= 5 E= -76.0570922814666  delta_E= -1.53e-05  |g|= 0.00121  |ddm|= 0.00814
    CPU time for cycle= 5      0.12 sec, wall time      0.00 sec
diis-norm(errvec)=0.00170821
diis-c [-7.91048549e-07  2.58068109e-03  5.44058478e-03 -3.33299344e-03
 -2.82148017e-01  1.27745974e+00]
  HOMO = -0.504466804701985  LUMO = 0.142225031879753
  mo_energy =
[-20.55501065  -1.34560559  -0.70870268  -0.57833366  -0.5044668
   0.14222503   0.20408358   0.54334596   0.60342555   0.66829656
   0.78748579   0.79882311   0.80565679   0.86194376   0.95367351
   1.13292987   1.1980349    1.52555773   1.56631318   2.03898296
   2.05349732   2.06532335   2.17239818   2.23455135   2.58803552
   2.96495261   3.35288489   3.48967189   3.58580646   3.65854109
   3.80034745   3.87898634   3.88615856   3.96344921   4.01872804
   4.07540316   4.19314252   4.31166223   4.38376706   4.59019216
   4.68563161   4.86515811   5.16022184   5.25351333   5.52941019
   6.05771262   6.57787524   6.92756992   6.94846661   7.00920188
   7.02674348   7.0578047    7.17794129   7.24208531   7.45928668
   7.79942403   8.29572484  12.86660892]
    CPU time for jk      0.04 sec, wall time      0.00 sec
    CPU time for df vj and vk      0.04 sec, wall time      0.00 sec
E1 = -123.10834147220262  E_coul = 37.86185173124142
cycle= 6 E= -76.0570931334698  delta_E= -8.52e-07  |g|= 0.000208  |ddm|= 0.00174
    CPU time for cycle= 6      0.16 sec, wall time      0.00 sec
diis-norm(errvec)=0.000293709
diis-c [-1.74646641e-08 -6.03233433e-04 -1.50931910e-03  1.57215626e-03
  7.47974933e-02 -4.40721783e-01  1.36646469e+00]
  HOMO = -0.504550122166889  LUMO = 0.142215622873452
  mo_energy =
[-20.5550567   -1.3456381   -0.70868644  -0.57838648  -0.50455012
   0.14221562   0.20409466   0.54333654   0.60340811   0.66827521
   0.78744024   0.79881598   0.80566184   0.86193677   0.95366666
   1.13290899   1.19803052   1.52556028   1.56630434   2.03895463
   2.05348025   2.06529326   2.17237829   2.23451907   2.58802239
   2.96493818   3.35287279   3.48966619   3.58579978   3.65853686
   3.80031669   3.87897113   3.88616242   3.96344611   4.01872231
   4.07539978   4.19312974   4.31165165   4.38374518   4.5901894
   4.68560622   4.86514433   5.16020201   5.25348519   5.52937743
   6.0576787    6.57785246   6.92753369   6.94841891   7.00916135
   7.02669869   7.05775816   7.17790142   7.2420479    7.45923717
   7.79938282   8.29569001  12.86657876]
    CPU time for jk      0.04 sec, wall time      0.00 sec
    CPU time for df vj and vk      0.04 sec, wall time      0.00 sec
E1 = -123.10839257354226  E_coul = 37.86190280693259
cycle= 7 E= -76.0570931591182  delta_E= -2.56e-08  |g|= 2.84e-05  |ddm|= 0.000291
    CPU time for cycle= 7      0.12 sec, wall time      0.00 sec
diis-norm(errvec)=4.01052e-05
diis-c [-2.32707360e-10  1.35948969e-04  3.87727194e-04 -4.55903962e-04
 -1.70532220e-02  1.08775376e-01 -4.25910333e-01  1.33412041e+00]
  HOMO = -0.504552770844801  LUMO = 0.142215419345334
  mo_energy =
[-20.55505044  -1.34563562  -0.70867663  -0.57838577  -0.50455277
   0.14221542   0.20409668   0.54333666   0.60340818   0.66827386
   0.78743621   0.7988163    0.80566478   0.86193709   0.95366704
   1.1329088    1.19803181   1.52556225   1.5663053    2.0389545
   2.05348103   2.06529353   2.17237949   2.23451866   2.58802301
   2.96493923   3.35287379   3.48966729   3.58580086   3.65853854
   3.80031697   3.87897209   3.88616418   3.96344728   4.01872327
   4.07540197   4.19313136   4.31165243   4.38374647   4.59019176
   4.68560701   4.86514571   5.16020355   5.25348661   5.52937873
   6.05768029   6.57785453   6.92753596   6.94842107   7.00916306
   7.02670061   7.05775905   7.17790403   7.24204909   7.45923866
   7.79938452   8.29569165  12.86658134]
    CPU time for jk      0.04 sec, wall time      0.00 sec
    CPU time for df vj and vk      0.04 sec, wall time      0.00 sec
E1 = -123.10838401611768  E_coul = 37.861894249109206
cycle= 8 E= -76.057093159517  delta_E= -3.99e-10  |g|= 2.69e-06  |ddm|= 4.72e-05
    CPU time for cycle= 8      0.28 sec, wall time      0.01 sec
  HOMO = -0.504552130253861  LUMO = 0.142215570037827
  mo_energy =
[-20.55504894  -1.34563495  -0.7086763   -0.57838544  -0.50455213
   0.14221557   0.20409683   0.54333713   0.60340839   0.66827427
   0.78743682   0.79881658   0.80566527   0.86193723   0.95366729
   1.13290938   1.19803193   1.52556262   1.56630562   2.03895512
   2.05348151   2.06529414   2.17238006   2.23451932   2.58802333
   2.96493966   3.35287411   3.48966756   3.58580112   3.65853871
   3.80031764   3.87897247   3.88616419   3.96344744   4.01872346
   4.07540225   4.19313177   4.31165271   4.38374701   4.59019204
   4.6856077    4.86514616   5.16020418   5.25348737   5.52937957
   6.05768126   6.57785536   6.92753696   6.94842218   7.00916402
   7.02670169   7.05775989   7.17790511   7.24204995   7.45923966
   7.79938544   8.29569256  12.86658223]
    CPU time for jk      0.04 sec, wall time      0.00 sec
    CPU time for df vj and vk      0.04 sec, wall time      0.00 sec
E1 = -123.10838031349736  E_coul = 37.86189054648555
Extra cycle  E= -76.0570931595204  delta_E= -3.33e-12  |g|= 1.04e-06  |ddm|= 4.49e-06
    CPU time for scf_cycle      2.08 sec, wall time      0.07 sec
    CPU time for SCF      2.14 sec, wall time      0.07 sec
converged SCF energy = -76.0570931595204

******** <class 'pyscf.mp.dfmp2.DFMP2'> ********
nocc = 5, nmo = 58
max_memory 1000000 MB (current use 242 MB)
    CPU time for jk      0.00 sec, wall time      0.00 sec
    CPU time for df vj and vk      0.00 sec, wall time      0.00 sec
E1 = -123.10838031349736  E_coul = 37.86189054648555
Load cderi step 0
E(DFMP2) = -76.3323055307462  E_corr = -0.275212371225851
E(SCS-DFMP2) = -76.3292904178179  E_corr = -0.272197258297524
E_corr(same-spin) = -0.0669895236617274
E_corr(oppo-spin) = -0.208222847564123
    CPU time for jk      0.04 sec, wall time      0.00 sec
    CPU time for df vj and vk      0.04 sec, wall time      0.00 sec

******** <class 'pyscf.cc.dfccsd.RCCSD'> ********
CC2 = 0
CCSD nocc = 5, nmo = 6
frozen orbitals [6, 7, 8, 9, 10, 11, 12, 13, 14, 15, 16, 17, 18, 19, 20, 21, 22, 23, 24, 25, 26, 27, 28, 29, 30, 31, 32, 33, 34, 35, 36, 37, 38, 39, 40, 41, 42, 43, 44, 45, 46, 47, 48, 49, 50, 51, 52, 53, 54, 55, 56, 57]
max_cycle = 50
direct = 0
conv_tol = 1e-07
conv_tol_normt = 1e-05
diis_space = 6
diis_start_cycle = 0
diis_start_energy_diff = 1e+09
max_memory 1000000 MB (current use 242 MB)
    CPU time for jk      0.04 sec, wall time      0.00 sec
    CPU time for df vj and vk      0.04 sec, wall time      0.00 sec
E1 = -123.10838031349736  E_coul = 37.86189054648555
Init t2, MP2 energy = -76.0578363090661  E_corr(MP2) -0.000743149545784049
    CPU time for init mp2      0.00 sec, wall time      0.00 sec
Init E_corr(RCCSD) = -0.000743149545984105
    CPU time for vvvv [0:1,0:1]      0.04 sec, wall time      0.00 sec
    CPU time for vvvv      0.04 sec, wall time      0.00 sec
max_memory 999756 MB,  nocc,nvir = 5,1  blksize = 1
    CPU time for vovv [0:1]      0.04 sec, wall time      0.00 sec
    CPU time for ovvv      0.08 sec, wall time      0.00 sec
max_memory 999756 MB,  nocc,nvir = 5,1  blksize = 1
    CPU time for voov [0:1]      0.08 sec, wall time      0.00 sec
    CPU time for update t1 t2      0.24 sec, wall time      0.01 sec
DIIS for step 0
cycle = 1  E_corr(RCCSD) = -0.000779789172780958  dE = -3.66396268e-05  norm(t1,t2) = 0.00222883
    CPU time for RCCSD iter      0.24 sec, wall time      0.01 sec
    CPU time for vvvv [0:1,0:1]      0.04 sec, wall time      0.00 sec
    CPU time for vvvv      0.04 sec, wall time      0.00 sec
max_memory 999756 MB,  nocc,nvir = 5,1  blksize = 1
    CPU time for vovv [0:1]      0.04 sec, wall time      0.00 sec
    CPU time for ovvv      0.04 sec, wall time      0.00 sec
max_memory 999756 MB,  nocc,nvir = 5,1  blksize = 1
    CPU time for voov [0:1]      0.08 sec, wall time      0.00 sec
    CPU time for update t1 t2      0.20 sec, wall time      0.00 sec
diis-c [-6.45757041e-07  1.00000000e+00]
DIIS for step 1
cycle = 2  E_corr(RCCSD) = -0.000791333598614742  dE = -1.15444258e-05  norm(t1,t2) = 0.00080359
    CPU time for RCCSD iter      0.24 sec, wall time      0.01 sec
    CPU time for vvvv [0:1,0:1]      0.00 sec, wall time      0.00 sec
    CPU time for vvvv      0.00 sec, wall time      0.00 sec
max_memory 999756 MB,  nocc,nvir = 5,1  blksize = 1
    CPU time for vovv [0:1]      0.04 sec, wall time      0.00 sec
    CPU time for ovvv      0.08 sec, wall time      0.00 sec
max_memory 999756 MB,  nocc,nvir = 5,1  blksize = 1
    CPU time for voov [0:1]      0.04 sec, wall time      0.00 sec
    CPU time for update t1 t2      0.16 sec, wall time      0.00 sec
diis-c [-1.11789514e-08 -5.96879735e-01  1.59687973e+00]
DIIS for step 2
cycle = 3  E_corr(RCCSD) = -0.000796321439495828  dE = -4.98784088e-06  norm(t1,t2) = 0.000315969
    CPU time for RCCSD iter      0.16 sec, wall time      0.00 sec
    CPU time for vvvv [0:1,0:1]      0.00 sec, wall time      0.00 sec
    CPU time for vvvv      0.04 sec, wall time      0.00 sec
max_memory 999756 MB,  nocc,nvir = 5,1  blksize = 1
    CPU time for vovv [0:1]      0.04 sec, wall time      0.00 sec
    CPU time for ovvv      0.04 sec, wall time      0.00 sec
max_memory 999756 MB,  nocc,nvir = 5,1  blksize = 1
    CPU time for voov [0:1]      0.08 sec, wall time      0.00 sec
    CPU time for update t1 t2      0.20 sec, wall time      0.00 sec
diis-c [-3.60033561e-11  1.37957348e-01 -4.12598749e-01  1.27464140e+00]
DIIS for step 3
cycle = 4  E_corr(RCCSD) = -0.000796209359334253  dE = 1.12080162e-07  norm(t1,t2) = 2.56247e-05
    CPU time for RCCSD iter      0.20 sec, wall time      0.00 sec
    CPU time for vvvv [0:1,0:1]      0.04 sec, wall time      0.00 sec
    CPU time for vvvv      0.04 sec, wall time      0.00 sec
max_memory 999756 MB,  nocc,nvir = 5,1  blksize = 1
    CPU time for vovv [0:1]      0.04 sec, wall time      0.00 sec
    CPU time for ovvv      0.04 sec, wall time      0.00 sec
max_memory 999756 MB,  nocc,nvir = 5,1  blksize = 1
    CPU time for voov [0:1]      0.08 sec, wall time      0.00 sec
    CPU time for update t1 t2      0.16 sec, wall time      0.00 sec
diis-c [-3.66517951e-13  4.49713193e-03 -1.10941270e-02  3.96686382e-03
  1.00263013e+00]
DIIS for step 4
cycle = 5  E_corr(RCCSD) = -0.000796187976445062  dE = 2.13828892e-08  norm(t1,t2) = 9.13108e-07
    CPU time for RCCSD iter      0.20 sec, wall time      0.00 sec
    CPU time for RCCSD      1.03 sec, wall time      0.03 sec
RCCSD converged
E(RCCSD) = -76.05788934749681  E_corr = -0.0007961879764450618

******** <class 'pyscf.cc.eom_rccsd.EOMIP'> ********
max_space = 20
max_cycle = 50
conv_tol = 1e-07
partition = None
max_memory 1000000 MB (current use 243 MB)
    CPU time for EOM-CCSD shared one-electron intermediates      0.04 sec, wall time      0.00 sec
    CPU time for EOM-CCSD shared two-electron intermediates      0.04 sec, wall time      0.00 sec
    CPU time for EOM-CCSD IP intermediates      0.04 sec, wall time      0.00 sec
tol 1e-07  toloose 0.000316228
max_cycle 50  max_space 20  max_memory 2000  incore True
davidson 0 1  |r|= 0.0976  e= [0.50499047]  max|de|= 0.505  lindep=    1
davidson 1 2  |r|= 0.00503  e= [0.49256083]  max|de|= -0.0124  lindep= 0.986
davidson 2 3  |r|= 0.000382  e= [0.49231387]  max|de|= -0.000247  lindep= 0.967
davidson 3 4  |r|= 2.5e-06  e= [0.49229627]  max|de|= -1.76e-05  lindep= 0.963
root 0 converged  |r|= 5.53e-08  e= 0.4922963440552446  max|de|= 7.85e-08
converged 4 5  |r|= 5.53e-08  e= [0.49229634]  max|de|= 7.85e-08
EOM-CCSD root 0 E = 0.4922963440552446  qpwt = 0.993911  conv = True
    CPU time for EOM-CCSD      0.20 sec, wall time      0.00 sec

******** <class 'pyscf.cc.eom_rccsd.EOMEA'> ********
max_space = 20
max_cycle = 50
conv_tol = 1e-07
partition = None
max_memory 1000000 MB (current use 243 MB)
    CPU time for EOM-CCSD shared one-electron intermediates      0.04 sec, wall time      0.00 sec
    CPU time for EOM-CCSD shared two-electron intermediates      0.04 sec, wall time      0.00 sec
    CPU time for EOM-CCSD EA intermediates      0.04 sec, wall time      0.00 sec
tol 1e-07  toloose 0.000316228
max_cycle 50  max_space 20  max_memory 2000  incore True
davidson 0 1  |r|= 0.0109  e= [0.14300135]  max|de|= 0.143  lindep=    1
davidson 1 2  |r|= 0.000286  e= [0.14288606]  max|de|= -0.000115  lindep= 0.956
davidson 2 3  |r|= 6.47e-06  e= [0.14288514]  max|de|= -9.2e-07  lindep= 0.974
root 0 converged  |r|= 3.11e-15  e= 0.1428851396816872  max|de|= -1.18e-10
converged 3 4  |r|= 3.11e-15  e= [0.14288514]  max|de|= -1.18e-10
EOM-CCSD root 0 E = 0.1428851396816872  qpwt = 0.999895  conv = True
    CPU time for EOM-CCSD      0.16 sec, wall time      0.00 sec

******** <class 'pyscf.cc.eom_rccsd.EOMEESinglet'> ********
max_space = 20
max_cycle = 50
conv_tol = 1e-07
partition = None
max_memory 1000000 MB (current use 243 MB)
    CPU time for EOM-CCSD EE intermediates      0.16 sec, wall time      0.00 sec
    CPU time for jk      0.00 sec, wall time      0.00 sec
    CPU time for df vj and vk      0.04 sec, wall time      0.00 sec
    CPU time for EOM-CCSD EE intermediates      0.12 sec, wall time      0.00 sec
tol 1e-07  toloose 0.000316228
max_cycle 50  max_space 20  max_memory 2000  incore True
    CPU time for vvvv [0:1,0:1]      0.00 sec, wall time      0.00 sec
davidson 0 1  |r|= 0.104  e= [0.3549792]  max|de|= 0.355  lindep=    1
    CPU time for vvvv [0:1,0:1]      0.04 sec, wall time      0.00 sec
davidson 1 2  |r|= 0.0113  e= [0.34650156]  max|de|= -0.00848  lindep= 0.891
    CPU time for vvvv [0:1,0:1]      0.00 sec, wall time      0.00 sec
davidson 2 3  |r|= 4.18e-05  e= [0.34639727]  max|de|= -0.000104  lindep= 0.998
    CPU time for vvvv [0:1,0:1]      0.00 sec, wall time      0.00 sec
root 0 converged  |r|= 1.05e-15  e= 0.3463972720534753  max|de|= 1.19e-10
converged 3 4  |r|= 1.05e-15  e= [0.34639727]  max|de|= 1.19e-10
EOM-CCSD root 0 E = 0.3463972720534753  qpwt = 0.99179  conv = True
    CPU time for EOM-CCSD      0.68 sec, wall time      0.02 sec
    CPU time for jk      0.00 sec, wall time      0.00 sec
    CPU time for df vj and vk      0.04 sec, wall time      0.00 sec

******** <class 'pyscf.cc.dfccsd.RCCSD'> ********
CC2 = 0
CCSD nocc = 5, nmo = 7
frozen orbitals [7, 8, 9, 10, 11, 12, 13, 14, 15, 16, 17, 18, 19, 20, 21, 22, 23, 24, 25, 26, 27, 28, 29, 30, 31, 32, 33, 34, 35, 36, 37, 38, 39, 40, 41, 42, 43, 44, 45, 46, 47, 48, 49, 50, 51, 52, 53, 54, 55, 56, 57]
max_cycle = 50
direct = 0
conv_tol = 1e-07
conv_tol_normt = 1e-05
diis_space = 6
diis_start_cycle = 0
diis_start_energy_diff = 1e+09
max_memory 1000000 MB (current use 245 MB)
    CPU time for jk      0.04 sec, wall time      0.00 sec
    CPU time for df vj and vk      0.04 sec, wall time      0.00 sec
E1 = -123.10838031349736  E_coul = 37.86189054648555
Init t2, MP2 energy = -76.0597020832515  E_corr(MP2) -0.00260892373117389
    CPU time for init mp2      0.04 sec, wall time      0.00 sec
Init E_corr(RCCSD) = -0.00260892373138264
    CPU time for vvvv [0:1,0:1]      0.00 sec, wall time      0.00 sec
    CPU time for vvvv [1:2,0:1]      0.04 sec, wall time      0.00 sec
    CPU time for vvvv [1:2,1:2]      0.00 sec, wall time      0.00 sec
    CPU time for vvvv      0.04 sec, wall time      0.00 sec
max_memory 999754 MB,  nocc,nvir = 5,2  blksize = 2
    CPU time for vovv [0:2]      0.04 sec, wall time      0.00 sec
    CPU time for ovvv      0.08 sec, wall time      0.00 sec
max_memory 999754 MB,  nocc,nvir = 5,2  blksize = 2
    CPU time for voov [0:2]      0.04 sec, wall time      0.00 sec
    CPU time for update t1 t2      0.20 sec, wall time      0.01 sec
DIIS for step 0
cycle = 1  E_corr(RCCSD) = -0.00279287102786027  dE = -0.000183947296  norm(t1,t2) = 0.0059159
    CPU time for RCCSD iter      0.20 sec, wall time      0.01 sec
    CPU time for vvvv [0:1,0:1]      0.04 sec, wall time      0.00 sec
    CPU time for vvvv [1:2,0:1]      0.00 sec, wall time      0.00 sec
    CPU time for vvvv [1:2,1:2]      0.00 sec, wall time      0.00 sec
    CPU time for vvvv      0.08 sec, wall time      0.00 sec
max_memory 999754 MB,  nocc,nvir = 5,2  blksize = 2
    CPU time for vovv [0:2]      0.04 sec, wall time      0.00 sec
    CPU time for ovvv      0.04 sec, wall time      0.00 sec
max_memory 999754 MB,  nocc,nvir = 5,2  blksize = 2
    CPU time for voov [0:2]      0.08 sec, wall time      0.00 sec
    CPU time for update t1 t2      0.20 sec, wall time      0.01 sec
diis-c [-4.18007978e-06  1.00000000e+00]
DIIS for step 1
cycle = 2  E_corr(RCCSD) = -0.00286764268051444  dE = -7.47716527e-05  norm(t1,t2) = 0.00204452
    CPU time for RCCSD iter      0.24 sec, wall time      0.01 sec
    CPU time for vvvv [0:1,0:1]      0.04 sec, wall time      0.00 sec
    CPU time for vvvv [1:2,0:1]      0.00 sec, wall time      0.00 sec
    CPU time for vvvv [1:2,1:2]      0.00 sec, wall time      0.00 sec
    CPU time for vvvv      0.04 sec, wall time      0.00 sec
max_memory 999754 MB,  nocc,nvir = 5,2  blksize = 2
    CPU time for vovv [0:2]      0.00 sec, wall time      0.00 sec
    CPU time for ovvv      0.08 sec, wall time      0.00 sec
max_memory 999754 MB,  nocc,nvir = 5,2  blksize = 2
    CPU time for voov [0:2]      0.08 sec, wall time      0.00 sec
    CPU time for update t1 t2      0.20 sec, wall time      0.01 sec
diis-c [-6.84759344e-08 -5.49685173e-01  1.54968517e+00]
DIIS for step 2
cycle = 3  E_corr(RCCSD) = -0.00290072187383557  dE = -3.30791933e-05  norm(t1,t2) = 0.000765368
    CPU time for RCCSD iter      0.24 sec, wall time      0.01 sec
    CPU time for vvvv [0:1,0:1]      0.00 sec, wall time      0.00 sec
    CPU time for vvvv [1:2,0:1]      0.04 sec, wall time      0.00 sec
    CPU time for vvvv [1:2,1:2]      0.00 sec, wall time      0.00 sec
    CPU time for vvvv      0.04 sec, wall time      0.00 sec
max_memory 999754 MB,  nocc,nvir = 5,2  blksize = 2
    CPU time for vovv [0:2]      0.00 sec, wall time      0.00 sec
    CPU time for ovvv      0.08 sec, wall time      0.00 sec
max_memory 999754 MB,  nocc,nvir = 5,2  blksize = 2
    CPU time for voov [0:2]      0.08 sec, wall time      0.00 sec
    CPU time for update t1 t2      0.20 sec, wall time      0.01 sec
diis-c [-5.23484706e-09  8.48887063e-02 -2.78516868e-01  1.19362816e+00]
DIIS for step 3
cycle = 4  E_corr(RCCSD) = -0.00290138688836312  dE = -6.65014528e-07  norm(t1,t2) = 8.63531e-05
    CPU time for RCCSD iter      0.24 sec, wall time      0.01 sec
    CPU time for vvvv [0:1,0:1]      0.00 sec, wall time      0.00 sec
    CPU time for vvvv [1:2,0:1]      0.04 sec, wall time      0.00 sec
    CPU time for vvvv [1:2,1:2]      0.00 sec, wall time      0.00 sec
    CPU time for vvvv      0.04 sec, wall time      0.00 sec
max_memory 999754 MB,  nocc,nvir = 5,2  blksize = 2
    CPU time for vovv [0:2]      0.04 sec, wall time      0.00 sec
    CPU time for ovvv      0.08 sec, wall time      0.00 sec
max_memory 999754 MB,  nocc,nvir = 5,2  blksize = 2
    CPU time for voov [0:2]      0.08 sec, wall time      0.00 sec
    CPU time for update t1 t2      0.20 sec, wall time      0.01 sec
diis-c [-4.03615288e-11  3.15927128e-02 -8.19656719e-02 -2.14746038e-01
  1.26511900e+00]
DIIS for step 4
cycle = 5  E_corr(RCCSD) = -0.00290098207392572  dE = 4.04814437e-07  norm(t1,t2) = 2.35662e-05
    CPU time for RCCSD iter      0.24 sec, wall time      0.01 sec
    CPU time for vvvv [0:1,0:1]      0.00 sec, wall time      0.00 sec
    CPU time for vvvv [1:2,0:1]      0.04 sec, wall time      0.00 sec
    CPU time for vvvv [1:2,1:2]      0.00 sec, wall time      0.00 sec
    CPU time for vvvv      0.04 sec, wall time      0.00 sec
max_memory 999754 MB,  nocc,nvir = 5,2  blksize = 2
    CPU time for vovv [0:2]      0.04 sec, wall time      0.00 sec
    CPU time for ovvv      0.08 sec, wall time      0.00 sec
max_memory 999754 MB,  nocc,nvir = 5,2  blksize = 2
    CPU time for voov [0:2]      0.04 sec, wall time      0.00 sec
    CPU time for update t1 t2      0.20 sec, wall time      0.00 sec
diis-c [-2.45072859e-13 -9.01138004e-03  2.37695686e-02  3.73004071e-02
 -3.00348482e-01  1.24828989e+00]
DIIS for step 5
cycle = 6  E_corr(RCCSD) = -0.00290101795255885  dE = -3.58786331e-08  norm(t1,t2) = 1.51442e-06
    CPU time for RCCSD iter      0.20 sec, wall time      0.01 sec
    CPU time for RCCSD      1.35 sec, wall time      0.03 sec
RCCSD converged
E(RCCSD) = -76.05999417747292  E_corr = -0.002901017952558845

******** <class 'pyscf.cc.eom_rccsd.EOMIP'> ********
max_space = 20
max_cycle = 50
conv_tol = 1e-07
partition = None
max_memory 1000000 MB (current use 245 MB)
    CPU time for EOM-CCSD shared one-electron intermediates      0.04 sec, wall time      0.00 sec
    CPU time for EOM-CCSD shared two-electron intermediates      0.00 sec, wall time      0.00 sec
    CPU time for EOM-CCSD IP intermediates      0.08 sec, wall time      0.00 sec
tol 1e-07  toloose 0.000316228
max_cycle 50  max_space 20  max_memory 2000  incore True
davidson 0 1  |r|= 0.138  e= [0.5064985]  max|de|= 0.506  lindep=    1
davidson 1 2  |r|= 0.00458  e= [0.47716764]  max|de|= -0.0293  lindep=    1
davidson 2 3  |r|= 0.000311  e= [0.47679993]  max|de|= -0.000368  lindep= 0.983
davidson 3 4  |r|= 1.55e-05  e= [0.47679238]  max|de|= -7.55e-06  lindep= 0.97
root 0 converged  |r|= 2.76e-07  e= 0.47679239481990887  max|de|= 1.56e-08
converged 4 5  |r|= 2.76e-07  e= [0.47679239]  max|de|= 1.56e-08
EOM-CCSD root 0 E = 0.4767923948199089  qpwt = 0.985979  conv = True
    CPU time for EOM-CCSD      0.20 sec, wall time      0.01 sec

******** <class 'pyscf.cc.eom_rccsd.EOMEA'> ********
max_space = 20
max_cycle = 50
conv_tol = 1e-07
partition = None
max_memory 1000000 MB (current use 245 MB)
    CPU time for EOM-CCSD shared one-electron intermediates      0.04 sec, wall time      0.00 sec
    CPU time for EOM-CCSD shared two-electron intermediates      0.04 sec, wall time      0.00 sec
    CPU time for EOM-CCSD EA intermediates      0.04 sec, wall time      0.00 sec
tol 1e-07  toloose 0.000316228
max_cycle 50  max_space 20  max_memory 2000  incore True
davidson 0 1  |r|= 0.0272  e= [0.14345097]  max|de|= 0.143  lindep=    1
davidson 1 2  |r|= 0.00303  e= [0.14107882]  max|de|= -0.00237  lindep= 0.998
davidson 2 3  |r|= 0.000218  e= [0.14099507]  max|de|= -8.38e-05  lindep= 0.958
davidson 3 4  |r|= 1.52e-05  e= [0.14099575]  max|de|= 6.86e-07  lindep= 0.972
davidson 4 5  |r|= 1.01e-06  e= [0.14099527]  max|de|= -4.84e-07  lindep= 0.95
root 0 converged  |r|= 4.32e-08  e= 0.14099526555562258  max|de|= -2.88e-09
converged 5 6  |r|= 4.32e-08  e= [0.14099527]  max|de|= -2.88e-09
EOM-CCSD root 0 E = 0.1409952655556226  qpwt = 0.99797  conv = True
    CPU time for EOM-CCSD      0.24 sec, wall time      0.01 sec

******** <class 'pyscf.cc.eom_rccsd.EOMEESinglet'> ********
max_space = 20
max_cycle = 50
conv_tol = 1e-07
partition = None
max_memory 1000000 MB (current use 245 MB)
    CPU time for EOM-CCSD EE intermediates      0.12 sec, wall time      0.00 sec
    CPU time for jk      0.04 sec, wall time      0.00 sec
    CPU time for df vj and vk      0.04 sec, wall time      0.00 sec
    CPU time for EOM-CCSD EE intermediates      0.12 sec, wall time      0.00 sec
tol 1e-07  toloose 0.000316228
max_cycle 50  max_space 20  max_memory 2000  incore True
    CPU time for vvvv [0:1,0:1]      0.04 sec, wall time      0.00 sec
    CPU time for vvvv [1:2,0:1]      0.00 sec, wall time      0.00 sec
    CPU time for vvvv [1:2,1:2]      0.00 sec, wall time      0.00 sec
davidson 0 1  |r|= 0.142  e= [0.35676611]  max|de|= 0.357  lindep=    1
    CPU time for vvvv [0:1,0:1]      0.00 sec, wall time      0.00 sec
    CPU time for vvvv [1:2,0:1]      0.00 sec, wall time      0.00 sec
    CPU time for vvvv [1:2,1:2]      0.04 sec, wall time      0.00 sec
davidson 1 2  |r|= 0.018  e= [0.33462097]  max|de|= -0.0221  lindep= 0.952
    CPU time for vvvv [0:1,0:1]      0.00 sec, wall time      0.00 sec
    CPU time for vvvv [1:2,0:1]      0.04 sec, wall time      0.00 sec
    CPU time for vvvv [1:2,1:2]      0.00 sec, wall time      0.00 sec
davidson 2 3  |r|= 0.00117  e= [0.33423422]  max|de|= -0.000387  lindep= 0.978
    CPU time for vvvv [0:1,0:1]      0.04 sec, wall time      0.00 sec
    CPU time for vvvv [1:2,0:1]      0.00 sec, wall time      0.00 sec
    CPU time for vvvv [1:2,1:2]      0.00 sec, wall time      0.00 sec
davidson 3 4  |r|= 0.000174  e= [0.33425964]  max|de|= 2.54e-05  lindep= 0.99
    CPU time for vvvv [0:1,0:1]      0.00 sec, wall time      0.00 sec
    CPU time for vvvv [1:2,0:1]      0.00 sec, wall time      0.00 sec
    CPU time for vvvv [1:2,1:2]      0.04 sec, wall time      0.00 sec
davidson 4 5  |r|= 1.37e-05  e= [0.33426744]  max|de|= 7.8e-06  lindep= 0.956
    CPU time for vvvv [0:1,0:1]      0.00 sec, wall time      0.00 sec
    CPU time for vvvv [1:2,0:1]      0.04 sec, wall time      0.00 sec
    CPU time for vvvv [1:2,1:2]      0.00 sec, wall time      0.00 sec
davidson 5 6  |r|= 2.13e-06  e= [0.33426698]  max|de|= -4.66e-07  lindep= 0.757
    CPU time for vvvv [0:1,0:1]      0.04 sec, wall time      0.00 sec
    CPU time for vvvv [1:2,0:1]      0.00 sec, wall time      0.00 sec
    CPU time for vvvv [1:2,1:2]      0.04 sec, wall time      0.00 sec
root 0 converged  |r|= 1.39e-07  e= 0.33426698257262  max|de|= 4.92e-09
converged 6 7  |r|= 1.39e-07  e= [0.33426698]  max|de|= 4.92e-09
EOM-CCSD root 0 E = 0.33426698257262  qpwt = 0.982858  conv = True
    CPU time for EOM-CCSD      1.12 sec, wall time      0.03 sec
    CPU time for jk      0.04 sec, wall time      0.00 sec
    CPU time for df vj and vk      0.04 sec, wall time      0.00 sec

******** <class 'pyscf.cc.dfccsd.RCCSD'> ********
CC2 = 0
CCSD nocc = 5, nmo = 8
frozen orbitals [8, 9, 10, 11, 12, 13, 14, 15, 16, 17, 18, 19, 20, 21, 22, 23, 24, 25, 26, 27, 28, 29, 30, 31, 32, 33, 34, 35, 36, 37, 38, 39, 40, 41, 42, 43, 44, 45, 46, 47, 48, 49, 50, 51, 52, 53, 54, 55, 56, 57]
max_cycle = 50
direct = 0
conv_tol = 1e-07
conv_tol_normt = 1e-05
diis_space = 6
diis_start_cycle = 0
diis_start_energy_diff = 1e+09
max_memory 1000000 MB (current use 245 MB)
    CPU time for jk      0.00 sec, wall time      0.00 sec
    CPU time for df vj and vk      0.00 sec, wall time      0.00 sec
E1 = -123.10838031349736  E_coul = 37.86189054648555
Init t2, MP2 energy = -76.0635635124715  E_corr(MP2) -0.0064703529511566
    CPU time for init mp2      0.04 sec, wall time      0.00 sec
Init E_corr(RCCSD) = -0.00647035295136942
    CPU time for vvvv [0:1,0:1]      0.04 sec, wall time      0.00 sec
    CPU time for vvvv [1:2,0:1]      0.00 sec, wall time      0.00 sec
    CPU time for vvvv [1:2,1:2]      0.04 sec, wall time      0.00 sec
    CPU time for vvvv [2:3,0:1]      0.00 sec, wall time      0.00 sec
    CPU time for vvvv [2:3,1:2]      0.04 sec, wall time      0.00 sec
    CPU time for vvvv [2:3,2:3]      0.00 sec, wall time      0.00 sec
    CPU time for vvvv      0.12 sec, wall time      0.00 sec
max_memory 999754 MB,  nocc,nvir = 5,3  blksize = 3
    CPU time for vovv [0:3]      0.04 sec, wall time      0.00 sec
    CPU time for ovvv      0.08 sec, wall time      0.00 sec
max_memory 999754 MB,  nocc,nvir = 5,3  blksize = 3
    CPU time for voov [0:3]      0.08 sec, wall time      0.00 sec
    CPU time for update t1 t2      0.28 sec, wall time      0.01 sec
DIIS for step 0
cycle = 1  E_corr(RCCSD) = -0.00749275147932957  dE = -0.00102239853  norm(t1,t2) = 0.0106488
    CPU time for RCCSD iter      0.32 sec, wall time      0.01 sec
    CPU time for vvvv [0:1,0:1]      0.04 sec, wall time      0.00 sec
    CPU time for vvvv [1:2,0:1]      0.00 sec, wall time      0.00 sec
    CPU time for vvvv [1:2,1:2]      0.04 sec, wall time      0.00 sec
    CPU time for vvvv [2:3,0:1]      0.00 sec, wall time      0.00 sec
    CPU time for vvvv [2:3,1:2]      0.04 sec, wall time      0.00 sec
    CPU time for vvvv [2:3,2:3]      0.00 sec, wall time      0.00 sec
    CPU time for vvvv      0.12 sec, wall time      0.00 sec
max_memory 999754 MB,  nocc,nvir = 5,3  blksize = 3
    CPU time for vovv [0:3]      0.00 sec, wall time      0.00 sec
    CPU time for ovvv      0.08 sec, wall time      0.00 sec
max_memory 999754 MB,  nocc,nvir = 5,3  blksize = 3
    CPU time for voov [0:3]      0.08 sec, wall time      0.00 sec
    CPU time for update t1 t2      0.28 sec, wall time      0.01 sec
diis-c [-1.29370411e-05  1.00000000e+00]
DIIS for step 1
cycle = 2  E_corr(RCCSD) = -0.00778648864410779  dE = -0.000293737165  norm(t1,t2) = 0.00359681
    CPU time for RCCSD iter      0.32 sec, wall time      0.01 sec
    CPU time for vvvv [0:1,0:1]      0.04 sec, wall time      0.00 sec
    CPU time for vvvv [1:2,0:1]      0.00 sec, wall time      0.00 sec
    CPU time for vvvv [1:2,1:2]      0.04 sec, wall time      0.00 sec
    CPU time for vvvv [2:3,0:1]      0.00 sec, wall time      0.00 sec
    CPU time for vvvv [2:3,1:2]      0.04 sec, wall time      0.00 sec
    CPU time for vvvv [2:3,2:3]      0.00 sec, wall time      0.00 sec
    CPU time for vvvv      0.12 sec, wall time      0.00 sec
max_memory 999754 MB,  nocc,nvir = 5,3  blksize = 3
    CPU time for vovv [0:3]      0.04 sec, wall time      0.00 sec
    CPU time for ovvv      0.08 sec, wall time      0.00 sec
max_memory 999754 MB,  nocc,nvir = 5,3  blksize = 3
    CPU time for voov [0:3]      0.08 sec, wall time      0.00 sec
    CPU time for update t1 t2      0.28 sec, wall time      0.01 sec
diis-c [-2.08653791e-07 -5.41362743e-01  1.54136274e+00]
DIIS for step 2
cycle = 3  E_corr(RCCSD) = -0.00792173899476865  dE = -0.000135250351  norm(t1,t2) = 0.00133372
    CPU time for RCCSD iter      0.32 sec, wall time      0.01 sec
    CPU time for vvvv [0:1,0:1]      0.00 sec, wall time      0.00 sec
    CPU time for vvvv [1:2,0:1]      0.04 sec, wall time      0.00 sec
    CPU time for vvvv [1:2,1:2]      0.04 sec, wall time      0.00 sec
    CPU time for vvvv [2:3,0:1]      0.00 sec, wall time      0.00 sec
    CPU time for vvvv [2:3,1:2]      0.04 sec, wall time      0.00 sec
    CPU time for vvvv [2:3,2:3]      0.00 sec, wall time      0.00 sec
    CPU time for vvvv      0.12 sec, wall time      0.00 sec
max_memory 999754 MB,  nocc,nvir = 5,3  blksize = 3
    CPU time for vovv [0:3]      0.04 sec, wall time      0.00 sec
    CPU time for ovvv      0.08 sec, wall time      0.00 sec
max_memory 999754 MB,  nocc,nvir = 5,3  blksize = 3
    CPU time for voov [0:3]      0.08 sec, wall time      0.00 sec
    CPU time for update t1 t2      0.28 sec, wall time      0.01 sec
diis-c [-1.36402860e-08  1.90032885e-01 -5.81620880e-01  1.39158799e+00]
DIIS for step 3
cycle = 4  E_corr(RCCSD) = -0.00792036622608565  dE = 1.37276868e-06  norm(t1,t2) = 0.000174402
    CPU time for RCCSD iter      0.32 sec, wall time      0.01 sec
    CPU time for vvvv [0:1,0:1]      0.00 sec, wall time      0.00 sec
    CPU time for vvvv [1:2,0:1]      0.04 sec, wall time      0.00 sec
    CPU time for vvvv [1:2,1:2]      0.04 sec, wall time      0.00 sec
    CPU time for vvvv [2:3,0:1]      0.00 sec, wall time      0.00 sec
    CPU time for vvvv [2:3,1:2]      0.04 sec, wall time      0.00 sec
    CPU time for vvvv [2:3,2:3]      0.00 sec, wall time      0.00 sec
    CPU time for vvvv      0.12 sec, wall time      0.00 sec
max_memory 999754 MB,  nocc,nvir = 5,3  blksize = 3
    CPU time for vovv [0:3]      0.04 sec, wall time      0.00 sec
    CPU time for ovvv      0.08 sec, wall time      0.00 sec
max_memory 999754 MB,  nocc,nvir = 5,3  blksize = 3
    CPU time for voov [0:3]      0.04 sec, wall time      0.00 sec
    CPU time for update t1 t2      0.28 sec, wall time      0.01 sec
diis-c [-4.90972740e-10  2.58153999e-02 -6.97991595e-02 -9.72161663e-02
  1.14119993e+00]
DIIS for step 4
cycle = 5  E_corr(RCCSD) = -0.00791940702140974  dE = 9.59204676e-07  norm(t1,t2) = 3.81481e-05
    CPU time for RCCSD iter      0.32 sec, wall time      0.01 sec
    CPU time for vvvv [0:1,0:1]      0.00 sec, wall time      0.00 sec
    CPU time for vvvv [1:2,0:1]      0.04 sec, wall time      0.00 sec
    CPU time for vvvv [1:2,1:2]      0.00 sec, wall time      0.00 sec
    CPU time for vvvv [2:3,0:1]      0.04 sec, wall time      0.00 sec
    CPU time for vvvv [2:3,1:2]      0.00 sec, wall time      0.00 sec
    CPU time for vvvv [2:3,2:3]      0.04 sec, wall time      0.00 sec
    CPU time for vvvv      0.12 sec, wall time      0.00 sec
max_memory 999754 MB,  nocc,nvir = 5,3  blksize = 3
    CPU time for vovv [0:3]      0.04 sec, wall time      0.00 sec
    CPU time for ovvv      0.08 sec, wall time      0.00 sec
max_memory 999754 MB,  nocc,nvir = 5,3  blksize = 3
    CPU time for voov [0:3]      0.04 sec, wall time      0.00 sec
    CPU time for update t1 t2      0.28 sec, wall time      0.01 sec
diis-c [-5.53703254e-12 -1.42738527e-02  4.07759695e-02 -2.78627442e-02
 -3.09528564e-01  1.31088919e+00]
DIIS for step 5
cycle = 6  E_corr(RCCSD) = -0.00791959620145176  dE = -1.89180042e-07  norm(t1,t2) = 6.71612e-06
    CPU time for RCCSD iter      0.32 sec, wall time      0.01 sec
    CPU time for vvvv [0:1,0:1]      0.00 sec, wall time      0.00 sec
    CPU time for vvvv [1:2,0:1]      0.04 sec, wall time      0.00 sec
    CPU time for vvvv [1:2,1:2]      0.00 sec, wall time      0.00 sec
    CPU time for vvvv [2:3,0:1]      0.04 sec, wall time      0.00 sec
    CPU time for vvvv [2:3,1:2]      0.00 sec, wall time      0.00 sec
    CPU time for vvvv [2:3,2:3]      0.04 sec, wall time      0.00 sec
    CPU time for vvvv      0.12 sec, wall time      0.00 sec
max_memory 999754 MB,  nocc,nvir = 5,3  blksize = 3
    CPU time for vovv [0:3]      0.04 sec, wall time      0.00 sec
    CPU time for ovvv      0.04 sec, wall time      0.00 sec
max_memory 999754 MB,  nocc,nvir = 5,3  blksize = 3
    CPU time for voov [0:3]      0.08 sec, wall time      0.00 sec
    CPU time for update t1 t2      0.28 sec, wall time      0.01 sec
diis-c [-6.91155610e-14  3.07024078e-03 -8.76360389e-03  8.15356307e-03
  5.99606777e-02 -3.16537587e-01  1.25411671e+00]
DIIS for step 6
cycle = 7  E_corr(RCCSD) = -0.00791958440096406  dE = 1.18004877e-08  norm(t1,t2) = 5.93253e-07
    CPU time for RCCSD iter      0.32 sec, wall time      0.01 sec
    CPU time for RCCSD      2.23 sec, wall time      0.06 sec
RCCSD converged
E(RCCSD) = -76.06501274392133  E_corr = -0.007919584400964059

******** <class 'pyscf.cc.eom_rccsd.EOMIP'> ********
max_space = 20
max_cycle = 50
conv_tol = 1e-07
partition = None
max_memory 1000000 MB (current use 245 MB)
    CPU time for EOM-CCSD shared one-electron intermediates      0.04 sec, wall time      0.00 sec
    CPU time for EOM-CCSD shared two-electron intermediates      0.00 sec, wall time      0.00 sec
    CPU time for EOM-CCSD IP intermediates      0.08 sec, wall time      0.00 sec
tol 1e-07  toloose 0.000316228
max_cycle 50  max_space 20  max_memory 2000  incore True
davidson 0 1  |r|= 0.145  e= [0.50706105]  max|de|= 0.507  lindep=    1
davidson 1 2  |r|= 0.00726  e= [0.47374721]  max|de|= -0.0333  lindep=    1
davidson 2 3  |r|= 0.000493  e= [0.47341979]  max|de|= -0.000327  lindep= 0.994
davidson 3 4  |r|= 3.63e-05  e= [0.47340105]  max|de|= -1.87e-05  lindep= 0.996
davidson 4 5  |r|= 2.81e-06  e= [0.47339786]  max|de|= -3.2e-06  lindep= 0.997
davidson 5 6  |r|= 1.46e-07  e= [0.47339774]  max|de|= -1.13e-07  lindep= 0.989
root 0 converged  |r|= 3.7e-09  e= 0.473397735461228  max|de|= -7.07e-09
converged 6 7  |r|= 3.7e-09  e= [0.47339774]  max|de|= -7.07e-09
EOM-CCSD root 0 E = 0.473397735461228  qpwt = 0.983745  conv = True
    CPU time for EOM-CCSD      0.24 sec, wall time      0.01 sec

******** <class 'pyscf.cc.eom_rccsd.EOMEA'> ********
max_space = 20
max_cycle = 50
conv_tol = 1e-07
partition = None
max_memory 1000000 MB (current use 245 MB)
    CPU time for EOM-CCSD shared one-electron intermediates      0.01 sec, wall time      0.00 sec
    CPU time for EOM-CCSD shared two-electron intermediates      0.00 sec, wall time      0.00 sec
    CPU time for EOM-CCSD EA intermediates      0.08 sec, wall time      0.00 sec
tol 1e-07  toloose 0.000316228
max_cycle 50  max_space 20  max_memory 2000  incore True
davidson 0 1  |r|= 0.0433  e= [0.1438147]  max|de|= 0.144  lindep=    1
davidson 1 2  |r|= 0.00439  e= [0.13915291]  max|de|= -0.00466  lindep= 0.999
davidson 2 3  |r|= 0.000374  e= [0.13913385]  max|de|= -1.91e-05  lindep= 0.992
davidson 3 4  |r|= 2.6e-05  e= [0.13914325]  max|de|= 9.4e-06  lindep= 0.984
davidson 4 5  |r|= 3.26e-06  e= [0.13914404]  max|de|= 7.9e-07  lindep= 0.99
root 0 converged  |r|= 3.49e-07  e= 0.13914406247692618  max|de|= 1.98e-08
converged 5 6  |r|= 3.49e-07  e= [0.13914406]  max|de|= 1.98e-08
EOM-CCSD root 0 E = 0.1391440624769262  qpwt = 0.996464  conv = True
    CPU time for EOM-CCSD      0.21 sec, wall time      0.01 sec

******** <class 'pyscf.cc.eom_rccsd.EOMEESinglet'> ********
max_space = 20
max_cycle = 50
conv_tol = 1e-07
partition = None
max_memory 1000000 MB (current use 245 MB)
    CPU time for EOM-CCSD EE intermediates      0.16 sec, wall time      0.00 sec
    CPU time for jk      0.04 sec, wall time      0.00 sec
    CPU time for df vj and vk      0.04 sec, wall time      0.00 sec
    CPU time for EOM-CCSD EE intermediates      0.16 sec, wall time      0.00 sec
tol 1e-07  toloose 0.000316228
max_cycle 50  max_space 20  max_memory 2000  incore True
    CPU time for vvvv [0:1,0:1]      0.00 sec, wall time      0.00 sec
    CPU time for vvvv [1:2,0:1]      0.04 sec, wall time      0.00 sec
    CPU time for vvvv [1:2,1:2]      0.04 sec, wall time      0.00 sec
    CPU time for vvvv [2:3,0:1]      0.00 sec, wall time      0.00 sec
    CPU time for vvvv [2:3,1:2]      0.04 sec, wall time      0.00 sec
    CPU time for vvvv [2:3,2:3]      0.00 sec, wall time      0.00 sec
davidson 0 1  |r|= 0.158  e= [0.35765073]  max|de|= 0.358  lindep=    1
    CPU time for vvvv [0:1,0:1]      0.04 sec, wall time      0.00 sec
    CPU time for vvvv [1:2,0:1]      0.04 sec, wall time      0.00 sec
    CPU time for vvvv [1:2,1:2]      0.00 sec, wall time      0.00 sec
    CPU time for vvvv [2:3,0:1]      0.04 sec, wall time      0.00 sec
    CPU time for vvvv [2:3,1:2]      0.00 sec, wall time      0.00 sec
    CPU time for vvvv [2:3,2:3]      0.04 sec, wall time      0.00 sec
davidson 1 2  |r|= 0.0184  e= [0.3275576]  max|de|= -0.0301  lindep= 0.967
    CPU time for vvvv [0:1,0:1]      0.04 sec, wall time      0.00 sec
    CPU time for vvvv [1:2,0:1]      0.00 sec, wall time      0.00 sec
    CPU time for vvvv [1:2,1:2]      0.04 sec, wall time      0.00 sec
    CPU time for vvvv [2:3,0:1]      0.00 sec, wall time      0.00 sec
    CPU time for vvvv [2:3,1:2]      0.04 sec, wall time      0.00 sec
    CPU time for vvvv [2:3,2:3]      0.00 sec, wall time      0.00 sec
davidson 2 3  |r|= 0.0024  e= [0.32709941]  max|de|= -0.000458  lindep= 0.978
    CPU time for vvvv [0:1,0:1]      0.00 sec, wall time      0.00 sec
    CPU time for vvvv [1:2,0:1]      0.04 sec, wall time      0.00 sec
    CPU time for vvvv [1:2,1:2]      0.00 sec, wall time      0.00 sec
    CPU time for vvvv [2:3,0:1]      0.04 sec, wall time      0.00 sec
    CPU time for vvvv [2:3,1:2]      0.00 sec, wall time      0.00 sec
    CPU time for vvvv [2:3,2:3]      0.04 sec, wall time      0.00 sec
davidson 3 4  |r|= 0.000354  e= [0.3271116]  max|de|= 1.22e-05  lindep= 0.978
    CPU time for vvvv [0:1,0:1]      0.04 sec, wall time      0.00 sec
    CPU time for vvvv [1:2,0:1]      0.04 sec, wall time      0.00 sec
    CPU time for vvvv [1:2,1:2]      0.00 sec, wall time      0.00 sec
    CPU time for vvvv [2:3,0:1]      0.23 sec, wall time      0.01 sec
    CPU time for vvvv [2:3,1:2]      0.02 sec, wall time      0.00 sec
    CPU time for vvvv [2:3,2:3]      0.00 sec, wall time      0.00 sec
davidson 4 5  |r|= 4.56e-05  e= [0.32711402]  max|de|= 2.42e-06  lindep= 0.981
    CPU time for vvvv [0:1,0:1]      0.00 sec, wall time      0.00 sec
    CPU time for vvvv [1:2,0:1]      0.04 sec, wall time      0.00 sec
    CPU time for vvvv [1:2,1:2]      0.00 sec, wall time      0.00 sec
    CPU time for vvvv [2:3,0:1]      0.04 sec, wall time      0.00 sec
    CPU time for vvvv [2:3,1:2]      0.00 sec, wall time      0.00 sec
    CPU time for vvvv [2:3,2:3]      0.04 sec, wall time      0.00 sec
davidson 5 6  |r|= 3.62e-06  e= [0.32711349]  max|de|= -5.3e-07  lindep= 0.996
    CPU time for vvvv [0:1,0:1]      0.04 sec, wall time      0.00 sec
    CPU time for vvvv [1:2,0:1]      0.00 sec, wall time      0.00 sec
    CPU time for vvvv [1:2,1:2]      0.04 sec, wall time      0.00 sec
    CPU time for vvvv [2:3,0:1]      0.00 sec, wall time      0.00 sec
    CPU time for vvvv [2:3,1:2]      0.04 sec, wall time      0.00 sec
    CPU time for vvvv [2:3,2:3]      0.00 sec, wall time      0.00 sec
davidson 6 7  |r|= 4.73e-07  e= [0.32711335]  max|de|= -1.35e-07  lindep= 0.974
    CPU time for vvvv [0:1,0:1]      0.04 sec, wall time      0.00 sec
    CPU time for vvvv [1:2,0:1]      0.00 sec, wall time      0.00 sec
    CPU time for vvvv [1:2,1:2]      0.04 sec, wall time      0.00 sec
    CPU time for vvvv [2:3,0:1]      0.00 sec, wall time      0.00 sec
    CPU time for vvvv [2:3,1:2]      0.04 sec, wall time      0.00 sec
    CPU time for vvvv [2:3,2:3]      0.00 sec, wall time      0.00 sec
root 0 converged  |r|= 8.93e-08  e= 0.3271133541556306  max|de|= -2.21e-10
converged 7 8  |r|= 8.93e-08  e= [0.32711335]  max|de|= -2.21e-10
EOM-CCSD root 0 E = 0.3271133541556306  qpwt = 0.978475  conv = True
    CPU time for EOM-CCSD      2.17 sec, wall time      0.06 sec
    CPU time for jk      0.00 sec, wall time      0.00 sec
    CPU time for df vj and vk      0.00 sec, wall time      0.00 sec

******** <class 'pyscf.cc.dfccsd.RCCSD'> ********
CC2 = 0
CCSD nocc = 5, nmo = 9
frozen orbitals [9, 10, 11, 12, 13, 14, 15, 16, 17, 18, 19, 20, 21, 22, 23, 24, 25, 26, 27, 28, 29, 30, 31, 32, 33, 34, 35, 36, 37, 38, 39, 40, 41, 42, 43, 44, 45, 46, 47, 48, 49, 50, 51, 52, 53, 54, 55, 56, 57]
max_cycle = 50
direct = 0
conv_tol = 1e-07
conv_tol_normt = 1e-05
diis_space = 6
diis_start_cycle = 0
diis_start_energy_diff = 1e+09
max_memory 1000000 MB (current use 245 MB)
    CPU time for jk      0.04 sec, wall time      0.00 sec
    CPU time for df vj and vk      0.04 sec, wall time      0.00 sec
E1 = -123.10838031349736  E_coul = 37.86189054648555
Init t2, MP2 energy = -76.0694479537053  E_corr(MP2) -0.012354794184905
    CPU time for init mp2      0.00 sec, wall time      0.00 sec
Init E_corr(RCCSD) = -0.0123547941852382
    CPU time for vvvv [0:1,0:1]      0.04 sec, wall time      0.00 sec
    CPU time for vvvv [1:2,0:1]      0.04 sec, wall time      0.00 sec
    CPU time for vvvv [1:2,1:2]      0.00 sec, wall time      0.00 sec
    CPU time for vvvv [2:3,0:1]      0.04 sec, wall time      0.00 sec
    CPU time for vvvv [2:3,1:2]      0.04 sec, wall time      0.00 sec
    CPU time for vvvv [2:3,2:3]      0.04 sec, wall time      0.00 sec
    CPU time for vvvv [3:4,0:1]      0.00 sec, wall time      0.00 sec
    CPU time for vvvv [3:4,1:2]      0.04 sec, wall time      0.00 sec
    CPU time for vvvv [3:4,2:3]      0.04 sec, wall time      0.00 sec
    CPU time for vvvv [3:4,3:4]      0.04 sec, wall time      0.00 sec
    CPU time for vvvv      0.32 sec, wall time      0.01 sec
max_memory 999754 MB,  nocc,nvir = 5,4  blksize = 4
    CPU time for vovv [0:4]      0.04 sec, wall time      0.00 sec
    CPU time for ovvv      0.08 sec, wall time      0.00 sec
max_memory 999754 MB,  nocc,nvir = 5,4  blksize = 4
    CPU time for voov [0:4]      0.04 sec, wall time      0.00 sec
    CPU time for update t1 t2      0.48 sec, wall time      0.01 sec
DIIS for step 0
cycle = 1  E_corr(RCCSD) = -0.0146566243674799  dE = -0.00230183018  norm(t1,t2) = 0.0147597
    CPU time for RCCSD iter      0.48 sec, wall time      0.01 sec
    CPU time for vvvv [0:1,0:1]      0.04 sec, wall time      0.00 sec
    CPU time for vvvv [1:2,0:1]      0.04 sec, wall time      0.00 sec
    CPU time for vvvv [1:2,1:2]      0.04 sec, wall time      0.00 sec
    CPU time for vvvv [2:3,0:1]      0.04 sec, wall time      0.00 sec
    CPU time for vvvv [2:3,1:2]      0.04 sec, wall time      0.00 sec
    CPU time for vvvv [2:3,2:3]      0.00 sec, wall time      0.00 sec
    CPU time for vvvv [3:4,0:1]      0.04 sec, wall time      0.00 sec
    CPU time for vvvv [3:4,1:2]      0.04 sec, wall time      0.00 sec
    CPU time for vvvv [3:4,2:3]      0.04 sec, wall time      0.00 sec
    CPU time for vvvv [3:4,3:4]      0.04 sec, wall time      0.00 sec
    CPU time for vvvv      0.36 sec, wall time      0.01 sec
max_memory 999754 MB,  nocc,nvir = 5,4  blksize = 4
    CPU time for vovv [0:4]      0.04 sec, wall time      0.00 sec
    CPU time for ovvv      0.04 sec, wall time      0.00 sec
max_memory 999754 MB,  nocc,nvir = 5,4  blksize = 4
    CPU time for voov [0:4]      0.08 sec, wall time      0.00 sec
    CPU time for update t1 t2      0.52 sec, wall time      0.01 sec
diis-c [-2.74832169e-05  1.00000000e+00]
DIIS for step 1
cycle = 2  E_corr(RCCSD) = -0.0153251888792617  dE = -0.000668564512  norm(t1,t2) = 0.00524244
    CPU time for RCCSD iter      0.52 sec, wall time      0.01 sec
    CPU time for vvvv [0:1,0:1]      0.08 sec, wall time      0.00 sec
    CPU time for vvvv [1:2,0:1]      0.00 sec, wall time      0.00 sec
    CPU time for vvvv [1:2,1:2]      0.04 sec, wall time      0.00 sec
    CPU time for vvvv [2:3,0:1]      0.04 sec, wall time      0.00 sec
    CPU time for vvvv [2:3,1:2]      0.04 sec, wall time      0.00 sec
    CPU time for vvvv [2:3,2:3]      0.00 sec, wall time      0.00 sec
    CPU time for vvvv [3:4,0:1]      0.04 sec, wall time      0.00 sec
    CPU time for vvvv [3:4,1:2]      0.04 sec, wall time      0.00 sec
    CPU time for vvvv [3:4,2:3]      0.04 sec, wall time      0.00 sec
    CPU time for vvvv [3:4,3:4]      0.04 sec, wall time      0.00 sec
    CPU time for vvvv      0.36 sec, wall time      0.01 sec
max_memory 999754 MB,  nocc,nvir = 5,4  blksize = 4
    CPU time for vovv [0:4]      0.04 sec, wall time      0.00 sec
    CPU time for ovvv      0.04 sec, wall time      0.00 sec
max_memory 999754 MB,  nocc,nvir = 5,4  blksize = 4
    CPU time for voov [0:4]      0.08 sec, wall time      0.00 sec
    CPU time for update t1 t2      0.52 sec, wall time      0.01 sec
diis-c [-5.58727977e-07 -5.85021224e-01  1.58502122e+00]
DIIS for step 2
cycle = 3  E_corr(RCCSD) = -0.0156540954661556  dE = -0.000328906587  norm(t1,t2) = 0.00205588
    CPU time for RCCSD iter      0.52 sec, wall time      0.01 sec
    CPU time for vvvv [0:1,0:1]      0.04 sec, wall time      0.00 sec
    CPU time for vvvv [1:2,0:1]      0.04 sec, wall time      0.00 sec
    CPU time for vvvv [1:2,1:2]      0.04 sec, wall time      0.00 sec
    CPU time for vvvv [2:3,0:1]      0.04 sec, wall time      0.00 sec
    CPU time for vvvv [2:3,1:2]      0.04 sec, wall time      0.00 sec
    CPU time for vvvv [2:3,2:3]      0.00 sec, wall time      0.00 sec
    CPU time for vvvv [3:4,0:1]      0.04 sec, wall time      0.00 sec
    CPU time for vvvv [3:4,1:2]      0.04 sec, wall time      0.00 sec
    CPU time for vvvv [3:4,2:3]      0.04 sec, wall time      0.00 sec
    CPU time for vvvv [3:4,3:4]      0.04 sec, wall time      0.00 sec
    CPU time for vvvv      0.36 sec, wall time      0.01 sec
max_memory 999754 MB,  nocc,nvir = 5,4  blksize = 4
    CPU time for vovv [0:4]      0.04 sec, wall time      0.00 sec
    CPU time for ovvv      0.04 sec, wall time      0.00 sec
max_memory 999754 MB,  nocc,nvir = 5,4  blksize = 4
    CPU time for voov [0:4]      0.08 sec, wall time      0.00 sec
    CPU time for update t1 t2      0.52 sec, wall time      0.01 sec
diis-c [-3.20606072e-08  2.69919426e-01 -7.76264579e-01  1.50634515e+00]
DIIS for step 3
cycle = 4  E_corr(RCCSD) = -0.0156459808211598  dE = 8.114645e-06  norm(t1,t2) = 0.000307956
    CPU time for RCCSD iter      0.52 sec, wall time      0.01 sec
    CPU time for vvvv [0:1,0:1]      0.04 sec, wall time      0.00 sec
    CPU time for vvvv [1:2,0:1]      0.04 sec, wall time      0.00 sec
    CPU time for vvvv [1:2,1:2]      0.04 sec, wall time      0.00 sec
    CPU time for vvvv [2:3,0:1]      0.04 sec, wall time      0.00 sec
    CPU time for vvvv [2:3,1:2]      0.00 sec, wall time      0.00 sec
    CPU time for vvvv [2:3,2:3]      0.04 sec, wall time      0.00 sec
    CPU time for vvvv [3:4,0:1]      0.04 sec, wall time      0.00 sec
    CPU time for vvvv [3:4,1:2]      0.04 sec, wall time      0.00 sec
    CPU time for vvvv [3:4,2:3]      0.04 sec, wall time      0.00 sec
    CPU time for vvvv [3:4,3:4]      0.00 sec, wall time      0.00 sec
    CPU time for vvvv      0.32 sec, wall time      0.01 sec
max_memory 999754 MB,  nocc,nvir = 5,4  blksize = 4
    CPU time for vovv [0:4]      0.00 sec, wall time      0.00 sec
    CPU time for ovvv      0.08 sec, wall time      0.00 sec
max_memory 999754 MB,  nocc,nvir = 5,4  blksize = 4
    CPU time for voov [0:4]      0.08 sec, wall time      0.00 sec
    CPU time for update t1 t2      0.52 sec, wall time      0.01 sec
diis-c [-1.89444241e-09  1.34338391e-02 -3.27796428e-02 -1.18749824e-01
  1.13809563e+00]
DIIS for step 4
cycle = 5  E_corr(RCCSD) = -0.015644930781638  dE = 1.05003952e-06  norm(t1,t2) = 6.13729e-05
    CPU time for RCCSD iter      0.52 sec, wall time      0.01 sec
    CPU time for vvvv [0:1,0:1]      0.04 sec, wall time      0.00 sec
    CPU time for vvvv [1:2,0:1]      0.04 sec, wall time      0.00 sec
    CPU time for vvvv [1:2,1:2]      0.04 sec, wall time      0.00 sec
    CPU time for vvvv [2:3,0:1]      0.04 sec, wall time      0.00 sec
    CPU time for vvvv [2:3,1:2]      0.00 sec, wall time      0.00 sec
    CPU time for vvvv [2:3,2:3]      0.04 sec, wall time      0.00 sec
    CPU time for vvvv [3:4,0:1]      0.04 sec, wall time      0.00 sec
    CPU time for vvvv [3:4,1:2]      0.04 sec, wall time      0.00 sec
    CPU time for vvvv [3:4,2:3]      0.04 sec, wall time      0.00 sec
    CPU time for vvvv [3:4,3:4]      0.00 sec, wall time      0.00 sec
    CPU time for vvvv      0.36 sec, wall time      0.01 sec
max_memory 999754 MB,  nocc,nvir = 5,4  blksize = 4
    CPU time for vovv [0:4]      0.04 sec, wall time      0.00 sec
    CPU time for ovvv      0.04 sec, wall time      0.00 sec
max_memory 999754 MB,  nocc,nvir = 5,4  blksize = 4
    CPU time for voov [0:4]      0.08 sec, wall time      0.00 sec
    CPU time for update t1 t2      0.48 sec, wall time      0.01 sec
diis-c [-1.82783385e-11 -2.03573655e-02  5.65268056e-02 -6.82920508e-02
 -2.60077759e-01  1.29220037e+00]
DIIS for step 5
cycle = 6  E_corr(RCCSD) = -0.0156457371218869  dE = -8.06340249e-07  norm(t1,t2) = 1.37272e-05
    CPU time for RCCSD iter      0.52 sec, wall time      0.01 sec
    CPU time for vvvv [0:1,0:1]      0.04 sec, wall time      0.00 sec
    CPU time for vvvv [1:2,0:1]      0.04 sec, wall time      0.00 sec
    CPU time for vvvv [1:2,1:2]      0.04 sec, wall time      0.00 sec
    CPU time for vvvv [2:3,0:1]      0.04 sec, wall time      0.00 sec
    CPU time for vvvv [2:3,1:2]      0.00 sec, wall time      0.00 sec
    CPU time for vvvv [2:3,2:3]      0.04 sec, wall time      0.00 sec
    CPU time for vvvv [3:4,0:1]      0.04 sec, wall time      0.00 sec
    CPU time for vvvv [3:4,1:2]      0.04 sec, wall time      0.00 sec
    CPU time for vvvv [3:4,2:3]      0.04 sec, wall time      0.00 sec
    CPU time for vvvv [3:4,3:4]      0.00 sec, wall time      0.00 sec
    CPU time for vvvv      0.32 sec, wall time      0.01 sec
max_memory 999754 MB,  nocc,nvir = 5,4  blksize = 4
    CPU time for vovv [0:4]      0.00 sec, wall time      0.00 sec
    CPU time for ovvv      0.08 sec, wall time      0.00 sec
max_memory 999754 MB,  nocc,nvir = 5,4  blksize = 4
    CPU time for voov [0:4]      0.08 sec, wall time      0.00 sec
    CPU time for update t1 t2      0.48 sec, wall time      0.01 sec
diis-c [-2.84578141e-13  5.47372957e-03 -1.50637079e-02  1.95747426e-02
  6.50561855e-02 -3.74005985e-01  1.29896504e+00]
DIIS for step 6
cycle = 7  E_corr(RCCSD) = -0.0156456685167479  dE = 6.8605139e-08  norm(t1,t2) = 1.19318e-06
    CPU time for RCCSD iter      0.52 sec, wall time      0.01 sec
    CPU time for RCCSD      3.58 sec, wall time      0.09 sec
RCCSD converged
E(RCCSD) = -76.07273882803712  E_corr = -0.01564566851674788

******** <class 'pyscf.cc.eom_rccsd.EOMIP'> ********
max_space = 20
max_cycle = 50
conv_tol = 1e-07
partition = None
max_memory 1000000 MB (current use 245 MB)
    CPU time for EOM-CCSD shared one-electron intermediates      0.04 sec, wall time      0.00 sec
    CPU time for EOM-CCSD shared two-electron intermediates      0.04 sec, wall time      0.00 sec
    CPU time for EOM-CCSD IP intermediates      0.08 sec, wall time      0.00 sec
tol 1e-07  toloose 0.000316228
max_cycle 50  max_space 20  max_memory 2000  incore True
davidson 0 1  |r|= 0.169  e= [0.50852171]  max|de|= 0.509  lindep=    1
davidson 1 2  |r|= 0.00936  e= [0.46903465]  max|de|= -0.0395  lindep=    1
davidson 2 3  |r|= 0.000815  e= [0.46882025]  max|de|= -0.000214  lindep= 0.999
davidson 3 4  |r|= 9.46e-05  e= [0.46883727]  max|de|= 1.7e-05  lindep= 0.992
davidson 4 5  |r|= 7.43e-06  e= [0.46884121]  max|de|= 3.94e-06  lindep= 0.991
davidson 5 6  |r|= 8.4e-07  e= [0.46884167]  max|de|= 4.63e-07  lindep= 0.995
root 0 converged  |r|= 7.87e-08  e= 0.46884173930225304  max|de|= 6.77e-08
converged 6 7  |r|= 7.87e-08  e= [0.46884174]  max|de|= 6.77e-08
EOM-CCSD root 0 E = 0.468841739302253  qpwt = 0.980843  conv = True
    CPU time for EOM-CCSD      0.31 sec, wall time      0.01 sec

******** <class 'pyscf.cc.eom_rccsd.EOMEA'> ********
max_space = 20
max_cycle = 50
conv_tol = 1e-07
partition = None
max_memory 1000000 MB (current use 245 MB)
    CPU time for EOM-CCSD shared one-electron intermediates      0.00 sec, wall time      0.00 sec
    CPU time for EOM-CCSD shared two-electron intermediates      0.00 sec, wall time      0.00 sec
    CPU time for EOM-CCSD EA intermediates      0.08 sec, wall time      0.00 sec
tol 1e-07  toloose 0.000316228
max_cycle 50  max_space 20  max_memory 2000  incore True
davidson 0 1  |r|= 0.0573  e= [0.14461366]  max|de|= 0.145  lindep=    1
davidson 1 2  |r|= 0.00718  e= [0.13723426]  max|de|= -0.00738  lindep=    1
davidson 2 3  |r|= 0.000906  e= [0.1370928]  max|de|= -0.000141  lindep= 0.999
davidson 3 4  |r|= 7.52e-05  e= [0.13710745]  max|de|= 1.46e-05  lindep= 0.966
davidson 4 5  |r|= 8.65e-06  e= [0.13710769]  max|de|= 2.41e-07  lindep= 0.998
root 0 converged  |r|= 1.17e-06  e= 0.13710765886839682  max|de|= -2.74e-08
converged 5 6  |r|= 1.17e-06  e= [0.13710766]  max|de|= -2.74e-08
EOM-CCSD root 0 E = 0.1371076588683968  qpwt = 0.995554  conv = True
    CPU time for EOM-CCSD      0.20 sec, wall time      0.01 sec

******** <class 'pyscf.cc.eom_rccsd.EOMEESinglet'> ********
max_space = 20
max_cycle = 50
conv_tol = 1e-07
partition = None
max_memory 1000000 MB (current use 245 MB)
    CPU time for EOM-CCSD EE intermediates      0.15 sec, wall time      0.00 sec
    CPU time for jk      0.04 sec, wall time      0.00 sec
    CPU time for df vj and vk      0.04 sec, wall time      0.00 sec
    CPU time for EOM-CCSD EE intermediates      0.16 sec, wall time      0.00 sec
tol 1e-07  toloose 0.000316228
max_cycle 50  max_space 20  max_memory 2000  incore True
    CPU time for vvvv [0:1,0:1]      0.04 sec, wall time      0.00 sec
    CPU time for vvvv [1:2,0:1]      0.00 sec, wall time      0.00 sec
    CPU time for vvvv [1:2,1:2]      0.04 sec, wall time      0.00 sec
    CPU time for vvvv [2:3,0:1]      0.04 sec, wall time      0.00 sec
    CPU time for vvvv [2:3,1:2]      0.04 sec, wall time      0.00 sec
    CPU time for vvvv [2:3,2:3]      0.04 sec, wall time      0.00 sec
    CPU time for vvvv [3:4,0:1]      0.00 sec, wall time      0.00 sec
    CPU time for vvvv [3:4,1:2]      0.04 sec, wall time      0.00 sec
    CPU time for vvvv [3:4,2:3]      0.04 sec, wall time      0.00 sec
    CPU time for vvvv [3:4,3:4]      0.04 sec, wall time      0.00 sec
davidson 0 1  |r|= 0.188  e= [0.35979855]  max|de|= 0.36  lindep=    1
    CPU time for vvvv [0:1,0:1]      0.04 sec, wall time      0.00 sec
    CPU time for vvvv [1:2,0:1]      0.04 sec, wall time      0.00 sec
    CPU time for vvvv [1:2,1:2]      0.04 sec, wall time      0.00 sec
    CPU time for vvvv [2:3,0:1]      0.04 sec, wall time      0.00 sec
    CPU time for vvvv [2:3,1:2]      0.00 sec, wall time      0.00 sec
    CPU time for vvvv [2:3,2:3]      0.04 sec, wall time      0.00 sec
    CPU time for vvvv [3:4,0:1]      0.04 sec, wall time      0.00 sec
    CPU time for vvvv [3:4,1:2]      0.04 sec, wall time      0.00 sec
    CPU time for vvvv [3:4,2:3]      0.04 sec, wall time      0.00 sec
    CPU time for vvvv [3:4,3:4]      0.00 sec, wall time      0.00 sec
davidson 1 2  |r|= 0.0452  e= [0.31560675]  max|de|= -0.0442  lindep= 0.993
    CPU time for vvvv [0:1,0:1]      0.04 sec, wall time      0.00 sec
    CPU time for vvvv [1:2,0:1]      0.00 sec, wall time      0.00 sec
    CPU time for vvvv [1:2,1:2]      0.04 sec, wall time      0.00 sec
    CPU time for vvvv [2:3,0:1]      0.04 sec, wall time      0.00 sec
    CPU time for vvvv [2:3,1:2]      0.04 sec, wall time      0.00 sec
    CPU time for vvvv [2:3,2:3]      0.04 sec, wall time      0.00 sec
    CPU time for vvvv [3:4,0:1]      0.04 sec, wall time      0.00 sec
    CPU time for vvvv [3:4,1:2]      0.00 sec, wall time      0.00 sec
    CPU time for vvvv [3:4,2:3]      0.04 sec, wall time      0.00 sec
    CPU time for vvvv [3:4,3:4]      0.04 sec, wall time      0.00 sec
davidson 2 3  |r|= 0.00952  e= [0.31507318]  max|de|= -0.000534  lindep= 0.965
    CPU time for vvvv [0:1,0:1]      0.04 sec, wall time      0.00 sec
    CPU time for vvvv [1:2,0:1]      0.04 sec, wall time      0.00 sec
    CPU time for vvvv [1:2,1:2]      0.04 sec, wall time      0.00 sec
    CPU time for vvvv [2:3,0:1]      0.04 sec, wall time      0.00 sec
    CPU time for vvvv [2:3,1:2]      0.04 sec, wall time      0.00 sec
    CPU time for vvvv [2:3,2:3]      0.00 sec, wall time      0.00 sec
    CPU time for vvvv [3:4,0:1]      0.04 sec, wall time      0.00 sec
    CPU time for vvvv [3:4,1:2]      0.04 sec, wall time      0.00 sec
    CPU time for vvvv [3:4,2:3]      0.04 sec, wall time      0.00 sec
    CPU time for vvvv [3:4,3:4]      0.00 sec, wall time      0.00 sec
davidson 3 4  |r|= 0.00263  e= [0.31543512]  max|de|= 0.000362  lindep= 0.945
    CPU time for vvvv [0:1,0:1]      0.04 sec, wall time      0.00 sec
    CPU time for vvvv [1:2,0:1]      0.04 sec, wall time      0.00 sec
    CPU time for vvvv [1:2,1:2]      0.00 sec, wall time      0.00 sec
    CPU time for vvvv [2:3,0:1]      0.04 sec, wall time      0.00 sec
    CPU time for vvvv [2:3,1:2]      0.04 sec, wall time      0.00 sec
    CPU time for vvvv [2:3,2:3]      0.04 sec, wall time      0.00 sec
    CPU time for vvvv [3:4,0:1]      0.04 sec, wall time      0.00 sec
    CPU time for vvvv [3:4,1:2]      0.00 sec, wall time      0.00 sec
    CPU time for vvvv [3:4,2:3]      0.04 sec, wall time      0.00 sec
    CPU time for vvvv [3:4,3:4]      0.04 sec, wall time      0.00 sec
davidson 4 5  |r|= 0.000364  e= [0.3154029]  max|de|= -3.22e-05  lindep= 0.981
    CPU time for vvvv [0:1,0:1]      0.04 sec, wall time      0.00 sec
    CPU time for vvvv [1:2,0:1]      0.04 sec, wall time      0.00 sec
    CPU time for vvvv [1:2,1:2]      0.04 sec, wall time      0.00 sec
    CPU time for vvvv [2:3,0:1]      0.04 sec, wall time      0.00 sec
    CPU time for vvvv [2:3,1:2]      0.04 sec, wall time      0.00 sec
    CPU time for vvvv [2:3,2:3]      0.00 sec, wall time      0.00 sec
    CPU time for vvvv [3:4,0:1]      0.04 sec, wall time      0.00 sec
    CPU time for vvvv [3:4,1:2]      0.04 sec, wall time      0.00 sec
    CPU time for vvvv [3:4,2:3]      0.04 sec, wall time      0.00 sec
    CPU time for vvvv [3:4,3:4]      0.00 sec, wall time      0.00 sec
davidson 5 6  |r|= 3.49e-05  e= [0.31539559]  max|de|= -7.31e-06  lindep= 0.983
    CPU time for vvvv [0:1,0:1]      0.04 sec, wall time      0.00 sec
    CPU time for vvvv [1:2,0:1]      0.04 sec, wall time      0.00 sec
    CPU time for vvvv [1:2,1:2]      0.00 sec, wall time      0.00 sec
    CPU time for vvvv [2:3,0:1]      0.04 sec, wall time      0.00 sec
    CPU time for vvvv [2:3,1:2]      0.04 sec, wall time      0.00 sec
    CPU time for vvvv [2:3,2:3]      0.04 sec, wall time      0.00 sec
    CPU time for vvvv [3:4,0:1]      0.00 sec, wall time      0.00 sec
    CPU time for vvvv [3:4,1:2]      0.04 sec, wall time      0.00 sec
    CPU time for vvvv [3:4,2:3]      0.04 sec, wall time      0.00 sec
    CPU time for vvvv [3:4,3:4]      0.04 sec, wall time      0.00 sec
davidson 6 7  |r|= 7.08e-06  e= [0.31539507]  max|de|= -5.23e-07  lindep= 0.978
    CPU time for vvvv [0:1,0:1]      0.04 sec, wall time      0.00 sec
    CPU time for vvvv [1:2,0:1]      0.04 sec, wall time      0.00 sec
    CPU time for vvvv [1:2,1:2]      0.04 sec, wall time      0.00 sec
    CPU time for vvvv [2:3,0:1]      0.04 sec, wall time      0.00 sec
    CPU time for vvvv [2:3,1:2]      0.00 sec, wall time      0.00 sec
    CPU time for vvvv [2:3,2:3]      0.04 sec, wall time      0.00 sec
    CPU time for vvvv [3:4,0:1]      0.04 sec, wall time      0.00 sec
    CPU time for vvvv [3:4,1:2]      0.04 sec, wall time      0.00 sec
    CPU time for vvvv [3:4,2:3]      0.04 sec, wall time      0.00 sec
    CPU time for vvvv [3:4,3:4]      0.00 sec, wall time      0.00 sec
davidson 7 8  |r|= 8.44e-07  e= [0.31539482]  max|de|= -2.53e-07  lindep= 0.989
    CPU time for vvvv [0:1,0:1]      0.04 sec, wall time      0.00 sec
    CPU time for vvvv [1:2,0:1]      0.00 sec, wall time      0.00 sec
    CPU time for vvvv [1:2,1:2]      0.04 sec, wall time      0.00 sec
    CPU time for vvvv [2:3,0:1]      0.04 sec, wall time      0.00 sec
    CPU time for vvvv [2:3,1:2]      0.04 sec, wall time      0.00 sec
    CPU time for vvvv [2:3,2:3]      0.04 sec, wall time      0.00 sec
    CPU time for vvvv [3:4,0:1]      0.02 sec, wall time      0.00 sec
    CPU time for vvvv [3:4,1:2]      0.02 sec, wall time      0.00 sec
    CPU time for vvvv [3:4,2:3]      0.04 sec, wall time      0.00 sec
    CPU time for vvvv [3:4,3:4]      0.04 sec, wall time      0.00 sec
root 0 converged  |r|= 1.01e-07  e= 0.3153948355721786  max|de|= 1.91e-08
converged 8 9  |r|= 1.01e-07  e= [0.31539484]  max|de|= 1.91e-08
EOM-CCSD root 0 E = 0.3153948355721786  qpwt = 0.973735  conv = True
    CPU time for EOM-CCSD      3.89 sec, wall time      0.10 sec
    CPU time for jk      0.00 sec, wall time      0.00 sec
    CPU time for df vj and vk      0.00 sec, wall time      0.00 sec

******** <class 'pyscf.cc.dfccsd.RCCSD'> ********
CC2 = 0
CCSD nocc = 5, nmo = 10
frozen orbitals [10, 11, 12, 13, 14, 15, 16, 17, 18, 19, 20, 21, 22, 23, 24, 25, 26, 27, 28, 29, 30, 31, 32, 33, 34, 35, 36, 37, 38, 39, 40, 41, 42, 43, 44, 45, 46, 47, 48, 49, 50, 51, 52, 53, 54, 55, 56, 57]
max_cycle = 50
direct = 0
conv_tol = 1e-07
conv_tol_normt = 1e-05
diis_space = 6
diis_start_cycle = 0
diis_start_energy_diff = 1e+09
max_memory 1000000 MB (current use 246 MB)
    CPU time for jk      0.04 sec, wall time      0.00 sec
    CPU time for df vj and vk      0.04 sec, wall time      0.00 sec
E1 = -123.10838031349736  E_coul = 37.86189054648554
Init t2, MP2 energy = -76.0776100640741  E_corr(MP2) -0.0205169045537275
    CPU time for init mp2      0.00 sec, wall time      0.00 sec
Init E_corr(RCCSD) = -0.0205169045540944
    CPU time for vvvv [0:2,0:2]      0.04 sec, wall time      0.00 sec
    CPU time for vvvv [2:4,0:2]      0.00 sec, wall time      0.00 sec
    CPU time for vvvv [2:4,2:4]      0.04 sec, wall time      0.00 sec
    CPU time for vvvv [4:5,0:2]      0.04 sec, wall time      0.00 sec
    CPU time for vvvv [4:5,2:4]      0.00 sec, wall time      0.00 sec
    CPU time for vvvv [4:5,4:5]      0.04 sec, wall time      0.00 sec
    CPU time for vvvv      0.16 sec, wall time      0.00 sec
max_memory 999753 MB,  nocc,nvir = 5,5  blksize = 5
    CPU time for vovv [0:5]      0.04 sec, wall time      0.00 sec
    CPU time for ovvv      0.08 sec, wall time      0.00 sec
max_memory 999753 MB,  nocc,nvir = 5,5  blksize = 5
    CPU time for voov [0:5]      0.08 sec, wall time      0.00 sec
    CPU time for update t1 t2      0.32 sec, wall time      0.01 sec
DIIS for step 0
cycle = 1  E_corr(RCCSD) = -0.0238860905505769  dE = -0.003369186  norm(t1,t2) = 0.0189561
    CPU time for RCCSD iter      0.40 sec, wall time      0.01 sec
    CPU time for vvvv [0:2,0:2]      0.04 sec, wall time      0.00 sec
    CPU time for vvvv [2:4,0:2]      0.00 sec, wall time      0.00 sec
    CPU time for vvvv [2:4,2:4]      0.04 sec, wall time      0.00 sec
    CPU time for vvvv [4:5,0:2]      0.04 sec, wall time      0.00 sec
    CPU time for vvvv [4:5,2:4]      0.00 sec, wall time      0.00 sec
    CPU time for vvvv [4:5,4:5]      0.04 sec, wall time      0.00 sec
    CPU time for vvvv      0.16 sec, wall time      0.00 sec
max_memory 999753 MB,  nocc,nvir = 5,5  blksize = 5
    CPU time for vovv [0:5]      0.04 sec, wall time      0.00 sec
    CPU time for ovvv      0.08 sec, wall time      0.00 sec
max_memory 999753 MB,  nocc,nvir = 5,5  blksize = 5
    CPU time for voov [0:5]      0.08 sec, wall time      0.00 sec
    CPU time for update t1 t2      0.32 sec, wall time      0.01 sec
diis-c [-4.20864194e-05  1.00000000e+00]
DIIS for step 1
cycle = 2  E_corr(RCCSD) = -0.0249203356988679  dE = -0.00103424515  norm(t1,t2) = 0.0064874
    CPU time for RCCSD iter      0.36 sec, wall time      0.01 sec
    CPU time for vvvv [0:2,0:2]      0.04 sec, wall time      0.00 sec
    CPU time for vvvv [2:4,0:2]      0.04 sec, wall time      0.00 sec
    CPU time for vvvv [2:4,2:4]      0.00 sec, wall time      0.00 sec
    CPU time for vvvv [4:5,0:2]      0.04 sec, wall time      0.00 sec
    CPU time for vvvv [4:5,2:4]      0.04 sec, wall time      0.00 sec
    CPU time for vvvv [4:5,4:5]      0.00 sec, wall time      0.00 sec
    CPU time for vvvv      0.16 sec, wall time      0.00 sec
max_memory 999753 MB,  nocc,nvir = 5,5  blksize = 5
    CPU time for vovv [0:5]      0.00 sec, wall time      0.00 sec
    CPU time for ovvv      0.08 sec, wall time      0.00 sec
max_memory 999753 MB,  nocc,nvir = 5,5  blksize = 5
    CPU time for voov [0:5]      0.08 sec, wall time      0.00 sec
    CPU time for update t1 t2      0.36 sec, wall time      0.01 sec
diis-c [-1.14332672e-06 -5.65479727e-01  1.56547973e+00]
DIIS for step 2
cycle = 3  E_corr(RCCSD) = -0.0254155378199385  dE = -0.000495202121  norm(t1,t2) = 0.00254667
    CPU time for RCCSD iter      0.36 sec, wall time      0.01 sec
    CPU time for vvvv [0:2,0:2]      0.04 sec, wall time      0.00 sec
    CPU time for vvvv [2:4,0:2]      0.04 sec, wall time      0.00 sec
[...]
    CPU time for vvvv [28:42,0:14]      0.24 sec, wall time      0.01 sec
    CPU time for vvvv [28:42,14:28]      0.28 sec, wall time      0.01 sec
    CPU time for vvvv [28:42,28:42]      0.28 sec, wall time      0.01 sec
    CPU time for vvvv [42:53,0:14]      0.24 sec, wall time      0.01 sec
    CPU time for vvvv [42:53,14:28]      0.24 sec, wall time      0.01 sec
    CPU time for vvvv [42:53,28:42]      0.28 sec, wall time      0.01 sec
    CPU time for vvvv [42:53,42:53]      0.24 sec, wall time      0.01 sec
    CPU time for vvvv      2.66 sec, wall time      0.07 sec
max_memory 999644 MB,  nocc,nvir = 5,53  blksize = 53
    CPU time for vovv [0:53]      0.36 sec, wall time      0.01 sec
    CPU time for ovvv      0.40 sec, wall time      0.01 sec
max_memory 999644 MB,  nocc,nvir = 5,53  blksize = 53
    CPU time for voov [0:53]      0.65 sec, wall time      0.02 sec
    CPU time for update t1 t2      3.78 sec, wall time      0.09 sec
diis-c [-1.23211302e-10 -7.98140004e-03  2.06708911e-03  7.64494762e-02
 -1.36178315e-01 -4.48875157e-01  1.51451831e+00]
DIIS for step 6
cycle = 7  E_corr(RCCSD) = -0.281248045002931  dE = -2.98945631e-06  norm(t1,t2) = 2.28756e-05
    CPU time for RCCSD iter      3.90 sec, wall time      0.10 sec
    CPU time for vvvv [0:14,0:14]      0.28 sec, wall time      0.01 sec
    CPU time for vvvv [14:28,0:14]      0.32 sec, wall time      0.01 sec
    CPU time for vvvv [14:28,14:28]      0.32 sec, wall time      0.01 sec
    CPU time for vvvv [28:42,0:14]      0.32 sec, wall time      0.01 sec
    CPU time for vvvv [28:42,14:28]      0.32 sec, wall time      0.01 sec
    CPU time for vvvv [28:42,28:42]      0.28 sec, wall time      0.01 sec
    CPU time for vvvv [42:53,0:14]      0.32 sec, wall time      0.01 sec
    CPU time for vvvv [42:53,14:28]      0.32 sec, wall time      0.01 sec
    CPU time for vvvv [42:53,28:42]      0.28 sec, wall time      0.01 sec
    CPU time for vvvv [42:53,42:53]      0.24 sec, wall time      0.01 sec
    CPU time for vvvv      2.98 sec, wall time      0.08 sec
max_memory 999644 MB,  nocc,nvir = 5,53  blksize = 53
    CPU time for vovv [0:53]      0.36 sec, wall time      0.01 sec
    CPU time for ovvv      0.40 sec, wall time      0.01 sec
max_memory 999644 MB,  nocc,nvir = 5,53  blksize = 53
    CPU time for voov [0:53]      0.64 sec, wall time      0.01 sec
    CPU time for update t1 t2      4.08 sec, wall time      0.10 sec
diis-c [-9.60106530e-12  1.19453007e+00 -6.28632862e-04  1.63019076e-03
  7.15632636e-03 -9.51062342e-04 -2.01736895e-01]
DIIS for step 7
cycle = 8  E_corr(RCCSD) = -0.281247720286315  dE = 3.24716616e-07  norm(t1,t2) = 4.78469e-06
    CPU time for RCCSD iter      4.20 sec, wall time      0.11 sec
    CPU time for vvvv [0:14,0:14]      0.24 sec, wall time      0.01 sec
    CPU time for vvvv [14:28,0:14]      0.28 sec, wall time      0.01 sec
    CPU time for vvvv [14:28,14:28]      0.28 sec, wall time      0.01 sec
    CPU time for vvvv [28:42,0:14]      0.28 sec, wall time      0.01 sec
    CPU time for vvvv [28:42,14:28]      0.24 sec, wall time      0.01 sec
    CPU time for vvvv [28:42,28:42]      0.28 sec, wall time      0.01 sec
    CPU time for vvvv [42:53,0:14]      0.24 sec, wall time      0.01 sec
    CPU time for vvvv [42:53,14:28]      0.28 sec, wall time      0.01 sec
    CPU time for vvvv [42:53,28:42]      0.24 sec, wall time      0.01 sec
    CPU time for vvvv [42:53,42:53]      0.24 sec, wall time      0.01 sec
    CPU time for vvvv      2.59 sec, wall time      0.07 sec
max_memory 999643 MB,  nocc,nvir = 5,53  blksize = 53
    CPU time for vovv [0:53]      0.32 sec, wall time      0.01 sec
    CPU time for ovvv      0.40 sec, wall time      0.01 sec
max_memory 999643 MB,  nocc,nvir = 5,53  blksize = 53
    CPU time for voov [0:53]      0.64 sec, wall time      0.01 sec
    CPU time for update t1 t2      3.69 sec, wall time      0.09 sec
diis-c [-5.78929639e-13 -3.48274039e-01  1.32942479e+00  1.52695733e-04
 -1.85799551e-03  9.71711169e-03  1.08374334e-02]
DIIS for step 8
cycle = 9  E_corr(RCCSD) = -0.281247461904571  dE = 2.58381744e-07  norm(t1,t2) = 1.29456e-06
    CPU time for RCCSD iter      3.77 sec, wall time      0.10 sec
    CPU time for vvvv [0:14,0:14]      0.32 sec, wall time      0.01 sec
    CPU time for vvvv [14:28,0:14]      0.32 sec, wall time      0.01 sec
    CPU time for vvvv [14:28,14:28]      0.28 sec, wall time      0.01 sec
    CPU time for vvvv [28:42,0:14]      0.24 sec, wall time      0.01 sec
    CPU time for vvvv [28:42,14:28]      0.28 sec, wall time      0.01 sec
    CPU time for vvvv [28:42,28:42]      0.24 sec, wall time      0.01 sec
    CPU time for vvvv [42:53,0:14]      0.28 sec, wall time      0.01 sec
    CPU time for vvvv [42:53,14:28]      0.24 sec, wall time      0.01 sec
    CPU time for vvvv [42:53,28:42]      0.24 sec, wall time      0.01 sec
    CPU time for vvvv [42:53,42:53]      0.24 sec, wall time      0.01 sec
    CPU time for vvvv      2.70 sec, wall time      0.07 sec
max_memory 999643 MB,  nocc,nvir = 5,53  blksize = 53
    CPU time for vovv [0:53]      0.36 sec, wall time      0.01 sec
    CPU time for ovvv      0.40 sec, wall time      0.01 sec
max_memory 999643 MB,  nocc,nvir = 5,53  blksize = 53
    CPU time for voov [0:53]      0.60 sec, wall time      0.01 sec
    CPU time for update t1 t2      3.77 sec, wall time      0.09 sec
diis-c [-2.71517189e-14 -6.68867307e-02 -1.65329269e-03  1.05790163e+00
 -6.62311745e-04 -1.49117191e-04  1.14498248e-02]
DIIS for step 9
cycle = 10  E_corr(RCCSD) = -0.281247450505541  dE = 1.13990294e-08  norm(t1,t2) = 2.47581e-07
    CPU time for RCCSD iter      3.85 sec, wall time      0.10 sec
    CPU time for RCCSD     40.50 sec, wall time      1.02 sec
RCCSD converged
E(RCCSD) = -76.33834061002592  E_corr = -0.2812474505055411

******** <class 'pyscf.cc.eom_rccsd.EOMIP'> ********
max_space = 20
max_cycle = 50
conv_tol = 1e-07
partition = None
max_memory 1000000 MB (current use 356 MB)
    CPU time for EOM-CCSD shared one-electron intermediates      0.28 sec, wall time      0.01 sec
    CPU time for EOM-CCSD shared two-electron intermediates      0.56 sec, wall time      0.01 sec
    CPU time for EOM-CCSD IP intermediates      0.56 sec, wall time      0.01 sec
tol 1e-07  toloose 0.000316228
max_cycle 50  max_space 20  max_memory 2000  incore True
davidson 0 1  |r|= 0.412  e= [0.57718732]  max|de|= 0.577  lindep=    1
davidson 1 2  |r|= 0.0727  e= [0.45569299]  max|de|= -0.121  lindep= 0.96
davidson 2 3  |r|= 0.0091  e= [0.45528746]  max|de|= -0.000406  lindep= 0.985
davidson 3 4  |r|= 0.00247  e= [0.45578099]  max|de|= 0.000494  lindep= 0.958
davidson 4 5  |r|= 0.000305  e= [0.45579903]  max|de|= 1.8e-05  lindep= 0.967
davidson 5 6  |r|= 3.72e-05  e= [0.45580495]  max|de|= 5.91e-06  lindep= 0.943
davidson 6 7  |r|= 5.17e-06  e= [0.45580665]  max|de|= 1.71e-06  lindep= 0.967
davidson 7 8  |r|= 7.53e-07  e= [0.45580687]  max|de|= 2.15e-07  lindep= 0.957
root 0 converged  |r|= 1.06e-07  e= 0.4558068826932758  max|de|= 1.52e-08
converged 8 9  |r|= 1.06e-07  e= [0.45580688]  max|de|= 1.52e-08
EOM-CCSD root 0 E = 0.4558068826932758  qpwt = 0.958514  conv = True
    CPU time for EOM-CCSD      1.59 sec, wall time      0.06 sec

******** <class 'pyscf.cc.eom_rccsd.EOMEA'> ********
max_space = 20
max_cycle = 50
conv_tol = 1e-07
partition = None
max_memory 1000000 MB (current use 356 MB)
    CPU time for EOM-CCSD shared one-electron intermediates      0.18 sec, wall time      0.01 sec
    CPU time for EOM-CCSD shared two-electron intermediates      0.56 sec, wall time      0.01 sec
    CPU time for EOM-CCSD EA intermediates      2.57 sec, wall time      0.37 sec
tol 1e-07  toloose 0.000316228
max_cycle 50  max_space 20  max_memory 2000  incore True
davidson 0 1  |r|= 0.237  e= [0.15067865]  max|de|= 0.151  lindep=    1
davidson 1 2  |r|= 0.044  e= [0.12416841]  max|de|= -0.0265  lindep= 0.993
davidson 2 3  |r|= 0.0161  e= [0.12181255]  max|de|= -0.00236  lindep= 0.976
davidson 3 4  |r|= 0.00282  e= [0.12184129]  max|de|= 2.87e-05  lindep= 0.99
davidson 4 5  |r|= 0.000694  e= [0.12184617]  max|de|= 4.88e-06  lindep= 0.995
davidson 5 6  |r|= 0.000116  e= [0.12184649]  max|de|= 3.14e-07  lindep= 0.969
davidson 6 7  |r|= 2.15e-05  e= [0.12184637]  max|de|= -1.18e-07  lindep= 0.979
root 0 converged  |r|= 4.11e-06  e= 0.1218464073120279  max|de|= 3.86e-08
converged 7 8  |r|= 4.11e-06  e= [0.12184641]  max|de|= 3.86e-08
EOM-CCSD root 0 E = 0.1218464073120279  qpwt = 0.991412  conv = True
    CPU time for EOM-CCSD     14.03 sec, wall time      0.75 sec

******** <class 'pyscf.cc.eom_rccsd.EOMEESinglet'> ********
max_space = 20
max_cycle = 50
conv_tol = 1e-07
partition = None
max_memory 1000000 MB (current use 359 MB)
    CPU time for EOM-CCSD EE intermediates      3.88 sec, wall time      0.12 sec
    CPU time for jk      0.02 sec, wall time      0.00 sec
    CPU time for df vj and vk      0.02 sec, wall time      0.00 sec
    CPU time for EOM-CCSD EE intermediates      3.83 sec, wall time      0.12 sec
tol 1e-07  toloose 0.000316228
max_cycle 50  max_space 20  max_memory 2000  incore True
    CPU time for vvvv [0:14,0:14]      0.28 sec, wall time      0.01 sec
    CPU time for vvvv [14:28,0:14]      0.28 sec, wall time      0.01 sec
    CPU time for vvvv [14:28,14:28]      0.28 sec, wall time      0.01 sec
    CPU time for vvvv [28:42,0:14]      0.28 sec, wall time      0.01 sec
    CPU time for vvvv [28:42,14:28]      0.24 sec, wall time      0.01 sec
    CPU time for vvvv [28:42,28:42]      0.28 sec, wall time      0.01 sec
    CPU time for vvvv [42:53,0:14]      0.24 sec, wall time      0.01 sec
    CPU time for vvvv [42:53,14:28]      0.28 sec, wall time      0.01 sec
    CPU time for vvvv [42:53,28:42]      0.24 sec, wall time      0.01 sec
    CPU time for vvvv [42:53,42:53]      0.24 sec, wall time      0.01 sec
davidson 0 1  |r|= 0.472  e= [0.43410624]  max|de|= 0.434  lindep=    1
    CPU time for vvvv [0:14,0:14]      0.24 sec, wall time      0.01 sec
    CPU time for vvvv [14:28,0:14]      0.28 sec, wall time      0.01 sec
    CPU time for vvvv [14:28,14:28]      0.28 sec, wall time      0.01 sec
    CPU time for vvvv [28:42,0:14]      0.28 sec, wall time      0.01 sec
    CPU time for vvvv [28:42,14:28]      0.24 sec, wall time      0.01 sec
    CPU time for vvvv [28:42,28:42]      0.28 sec, wall time      0.01 sec
    CPU time for vvvv [42:53,0:14]      0.24 sec, wall time      0.01 sec
    CPU time for vvvv [42:53,14:28]      0.28 sec, wall time      0.01 sec
    CPU time for vvvv [42:53,28:42]      0.24 sec, wall time      0.01 sec
    CPU time for vvvv [42:53,42:53]      0.24 sec, wall time      0.01 sec
davidson 1 2  |r|= 0.163  e= [0.30430277]  max|de|= -0.13  lindep= 0.962
    CPU time for vvvv [0:14,0:14]      0.28 sec, wall time      0.01 sec
    CPU time for vvvv [14:28,0:14]      0.28 sec, wall time      0.01 sec
    CPU time for vvvv [14:28,14:28]      0.24 sec, wall time      0.01 sec
    CPU time for vvvv [28:42,0:14]      0.28 sec, wall time      0.01 sec
    CPU time for vvvv [28:42,14:28]      0.28 sec, wall time      0.01 sec
    CPU time for vvvv [28:42,28:42]      0.28 sec, wall time      0.01 sec
    CPU time for vvvv [42:53,0:14]      0.24 sec, wall time      0.01 sec
    CPU time for vvvv [42:53,14:28]      0.24 sec, wall time      0.01 sec
    CPU time for vvvv [42:53,28:42]      0.24 sec, wall time      0.01 sec
    CPU time for vvvv [42:53,42:53]      0.28 sec, wall time      0.01 sec
davidson 2 3  |r|= 0.0345  e= [0.2976289]  max|de|= -0.00667  lindep= 0.962
    CPU time for vvvv [0:14,0:14]      0.28 sec, wall time      0.01 sec
    CPU time for vvvv [14:28,0:14]      0.24 sec, wall time      0.01 sec
    CPU time for vvvv [14:28,14:28]      0.28 sec, wall time      0.01 sec
    CPU time for vvvv [28:42,0:14]      0.28 sec, wall time      0.01 sec
    CPU time for vvvv [28:42,14:28]      0.24 sec, wall time      0.01 sec
    CPU time for vvvv [28:42,28:42]      0.28 sec, wall time      0.01 sec
    CPU time for vvvv [42:53,0:14]      0.24 sec, wall time      0.01 sec
    CPU time for vvvv [42:53,14:28]      0.28 sec, wall time      0.01 sec
    CPU time for vvvv [42:53,28:42]      0.24 sec, wall time      0.01 sec
    CPU time for vvvv [42:53,42:53]      0.24 sec, wall time      0.01 sec
davidson 3 4  |r|= 0.0182  e= [0.29852515]  max|de|= 0.000896  lindep= 0.957
    CPU time for vvvv [0:14,0:14]      0.24 sec, wall time      0.01 sec
    CPU time for vvvv [14:28,0:14]      0.28 sec, wall time      0.01 sec
    CPU time for vvvv [14:28,14:28]      0.28 sec, wall time      0.01 sec
    CPU time for vvvv [28:42,0:14]      0.24 sec, wall time      0.01 sec
    CPU time for vvvv [28:42,14:28]      0.28 sec, wall time      0.01 sec
    CPU time for vvvv [28:42,28:42]      0.28 sec, wall time      0.01 sec
    CPU time for vvvv [42:53,0:14]      0.24 sec, wall time      0.01 sec
    CPU time for vvvv [42:53,14:28]      0.24 sec, wall time      0.01 sec
    CPU time for vvvv [42:53,28:42]      0.28 sec, wall time      0.01 sec
    CPU time for vvvv [42:53,42:53]      0.24 sec, wall time      0.01 sec
davidson 4 5  |r|= 0.00523  e= [0.29867116]  max|de|= 0.000146  lindep= 0.923
    CPU time for vvvv [0:14,0:14]      0.28 sec, wall time      0.01 sec
    CPU time for vvvv [14:28,0:14]      0.28 sec, wall time      0.01 sec
    CPU time for vvvv [14:28,14:28]      0.24 sec, wall time      0.01 sec
    CPU time for vvvv [28:42,0:14]      0.28 sec, wall time      0.01 sec
    CPU time for vvvv [28:42,14:28]      0.28 sec, wall time      0.01 sec
    CPU time for vvvv [28:42,28:42]      0.28 sec, wall time      0.01 sec
    CPU time for vvvv [42:53,0:14]      0.24 sec, wall time      0.01 sec
    CPU time for vvvv [42:53,14:28]      0.24 sec, wall time      0.01 sec
    CPU time for vvvv [42:53,28:42]      0.28 sec, wall time      0.01 sec
    CPU time for vvvv [42:53,42:53]      0.20 sec, wall time      0.01 sec
davidson 5 6  |r|= 0.00123  e= [0.29852845]  max|de|= -0.000143  lindep= 0.977
    CPU time for vvvv [0:14,0:14]      0.28 sec, wall time      0.01 sec
    CPU time for vvvv [14:28,0:14]      0.28 sec, wall time      0.01 sec
    CPU time for vvvv [14:28,14:28]      0.28 sec, wall time      0.01 sec
    CPU time for vvvv [28:42,0:14]      0.24 sec, wall time      0.01 sec
    CPU time for vvvv [28:42,14:28]      0.28 sec, wall time      0.01 sec
    CPU time for vvvv [28:42,28:42]      0.28 sec, wall time      0.01 sec
    CPU time for vvvv [42:53,0:14]      0.24 sec, wall time      0.01 sec
    CPU time for vvvv [42:53,14:28]      0.24 sec, wall time      0.01 sec
    CPU time for vvvv [42:53,28:42]      0.28 sec, wall time      0.01 sec
    CPU time for vvvv [42:53,42:53]      0.24 sec, wall time      0.01 sec
davidson 6 7  |r|= 0.000353  e= [0.29851032]  max|de|= -1.81e-05  lindep= 0.878
    CPU time for vvvv [0:14,0:14]      0.28 sec, wall time      0.01 sec
    CPU time for vvvv [14:28,0:14]      0.24 sec, wall time      0.01 sec
    CPU time for vvvv [14:28,14:28]      0.28 sec, wall time      0.01 sec
    CPU time for vvvv [28:42,0:14]      0.28 sec, wall time      0.01 sec
    CPU time for vvvv [28:42,14:28]      0.28 sec, wall time      0.01 sec
    CPU time for vvvv [28:42,28:42]      0.24 sec, wall time      0.01 sec
    CPU time for vvvv [42:53,0:14]      0.28 sec, wall time      0.01 sec
    CPU time for vvvv [42:53,14:28]      0.24 sec, wall time      0.01 sec
    CPU time for vvvv [42:53,28:42]      0.24 sec, wall time      0.01 sec
    CPU time for vvvv [42:53,42:53]      0.28 sec, wall time      0.01 sec
davidson 7 8  |r|= 9.05e-05  e= [0.29850876]  max|de|= -1.56e-06  lindep= 0.961
    CPU time for vvvv [0:14,0:14]      0.28 sec, wall time      0.01 sec
    CPU time for vvvv [14:28,0:14]      0.28 sec, wall time      0.01 sec
    CPU time for vvvv [14:28,14:28]      0.28 sec, wall time      0.01 sec
    CPU time for vvvv [28:42,0:14]      0.24 sec, wall time      0.01 sec
    CPU time for vvvv [28:42,14:28]      0.28 sec, wall time      0.01 sec
    CPU time for vvvv [28:42,28:42]      0.28 sec, wall time      0.01 sec
    CPU time for vvvv [42:53,0:14]      0.24 sec, wall time      0.01 sec
    CPU time for vvvv [42:53,14:28]      0.24 sec, wall time      0.01 sec
    CPU time for vvvv [42:53,28:42]      0.28 sec, wall time      0.01 sec
    CPU time for vvvv [42:53,42:53]      0.24 sec, wall time      0.01 sec
davidson 8 9  |r|= 2.4e-05  e= [0.29850899]  max|de|= 2.35e-07  lindep= 0.875
    CPU time for vvvv [0:14,0:14]      0.28 sec, wall time      0.01 sec
    CPU time for vvvv [14:28,0:14]      0.24 sec, wall time      0.01 sec
    CPU time for vvvv [14:28,14:28]      0.28 sec, wall time      0.01 sec
    CPU time for vvvv [28:42,0:14]      0.28 sec, wall time      0.01 sec
    CPU time for vvvv [28:42,14:28]      0.28 sec, wall time      0.01 sec
    CPU time for vvvv [28:42,28:42]      0.24 sec, wall time      0.01 sec
    CPU time for vvvv [42:53,0:14]      0.28 sec, wall time      0.01 sec
    CPU time for vvvv [42:53,14:28]      0.24 sec, wall time      0.01 sec
    CPU time for vvvv [42:53,28:42]      0.24 sec, wall time      0.01 sec
    CPU time for vvvv [42:53,42:53]      0.24 sec, wall time      0.01 sec
davidson 9 10  |r|= 7.93e-06  e= [0.29850918]  max|de|= 1.84e-07  lindep= 0.905
    CPU time for vvvv [0:14,0:14]      0.24 sec, wall time      0.01 sec
    CPU time for vvvv [14:28,0:14]      0.28 sec, wall time      0.01 sec
    CPU time for vvvv [14:28,14:28]      0.28 sec, wall time      0.01 sec
    CPU time for vvvv [28:42,0:14]      0.28 sec, wall time      0.01 sec
    CPU time for vvvv [28:42,14:28]      0.24 sec, wall time      0.01 sec
    CPU time for vvvv [28:42,28:42]      0.28 sec, wall time      0.01 sec
    CPU time for vvvv [42:53,0:14]      0.24 sec, wall time      0.01 sec
    CPU time for vvvv [42:53,14:28]      0.28 sec, wall time      0.01 sec
    CPU time for vvvv [42:53,28:42]      0.24 sec, wall time      0.01 sec
    CPU time for vvvv [42:53,42:53]      0.24 sec, wall time      0.01 sec
root 0 converged  |r|= 1.84e-06  e= 0.2985091647805726  max|de|= -1.06e-08
converged 10 11  |r|= 1.84e-06  e= [0.29850916]  max|de|= -1.06e-08
EOM-CCSD root 0 E = 0.2985091647805726  qpwt = 0.95603  conv = True
    CPU time for EOM-CCSD     46.97 sec, wall time      1.23 sec
1 0.492296 0.142885 0.346397
2 0.476792 0.140995 0.334267
3 0.473398 0.139144 0.327113
4 0.468842 0.137108 0.315395
5 0.450536 0.136097 0.298994
6 0.446142 0.135317 0.299136
7 0.445987 0.133811 0.296819
8 0.438652 0.132760 0.291763
9 0.439782 0.131335 0.291882
10 0.440558 0.130373 0.291625
11 0.438743 0.128916 0.290394
12 0.438754 0.128578 0.290206
13 0.437741 0.128413 0.288506
14 0.436047 0.126240 0.285116
15 0.437234 0.125567 0.285642
16 0.437270 0.125145 0.285658
17 0.439463 0.124669 0.287078
18 0.440531 0.124130 0.287343
19 0.441724 0.123553 0.287961
20 0.441820 0.123410 0.287856
21 0.441606 0.123419 0.287780
22 0.441806 0.123368 0.287909
23 0.441902 0.123340 0.287949
24 0.442061 0.123309 0.288047
25 0.442132 0.123278 0.288067
26 0.444984 0.123389 0.291319
27 0.445111 0.123367 0.291402
28 0.445185 0.123334 0.291435
29 0.445364 0.123309 0.291573
30 0.446782 0.123327 0.293059
31 0.446624 0.123304 0.292941
32 0.446308 0.123020 0.292390
33 0.446448 0.123003 0.292487
34 0.446416 0.122964 0.292452
35 0.446362 0.122967 0.292434
36 0.448640 0.123002 0.294603
37 0.448649 0.122925 0.294440
38 0.449014 0.122451 0.294033
39 0.449577 0.122468 0.294622
40 0.450152 0.122478 0.295152
41 0.450584 0.122435 0.295406
42 0.450913 0.122369 0.295483
43 0.451954 0.122292 0.296114
44 0.453383 0.122300 0.297256
45 0.453881 0.122278 0.297728
46 0.454026 0.122146 0.297593
47 0.454078 0.122140 0.297653
48 0.454697 0.122051 0.297983
49 0.454959 0.122039 0.298201
50 0.455551 0.122060 0.298730
51 0.455520 0.122051 0.298671
52 0.455517 0.121940 0.298427
53 0.455807 0.121846 0.298509
