#INFO: **** input file is /insomnia001/depts/berkelbach/users/eav2136/projects/excited_fno/water_nto.py ****
#!/usr/bin/env python3
from pyscf import gto, scf, mp, cc
from pyscf.tdscf.rhf import CIS
from pyscf.cc.eom_rccsd import EOMIP, EOMEA, EOMEESinglet
import numpy as np
from functools import reduce

mol = gto.Mole()
mol.atom = '''
    O   0.0000000   0.0000000   0.1177930
    H   0.0000000   0.7554150   -0.4711740
    H   0.0000000   -0.7554150  -0.4711740
'''
mol.basis = 'ccpvtz'
mol.verbose = 7
mol.build()

mymf = scf.RHF(mol)
mymf = mymf.density_fit()
mymf.kernel()

mycis = CIS(mymf)
ecis, xy = mycis.kernel()
weights, nto_coeff = mycis.get_nto()

mymp = mp.RMP2(mymf)
emp2, t2 = mymp.kernel()

nocc = mymp.nocc
nmo = mymp.nmo
nvir = nmo - nocc
mo_energy = mymf.mo_energy
mo_coeff = mymf.mo_coeff

results = []
for nvir_act in range(1, nvir):
    frozen = list(range(nocc+nvir_act, nmo))
    mycc = cc.RCCSD(mymf, frozen=frozen, mo_coeff=nto_coeff)
    eris = mycc.ao2mo()
    eccsd, t1, t2 = mycc.kernel(eris=eris)

    myeom = EOMIP(mycc)
    ipe, ipv = myeom.kernel(eris=eris)
    myeom = EOMEA(mycc)
    eae, eav = myeom.kernel(eris=eris)
    myeom = EOMEESinglet(mycc)
    eee, eev = myeom.kernel(eris=eris)
    results.append((nvir_act, ipe, eae, eee))

mycc = cc.RCCSD(mymf)
eris = mycc.ao2mo()
eccsd, t1, t2 = mycc.kernel()
myeom = EOMIP(mycc)
ipe, ipv = myeom.kernel(eris=eris)
myeom = EOMEA(mycc)
eae, eav = myeom.kernel(eris=eris)
myeom = EOMEESinglet(mycc)
eee, eev = myeom.kernel(eris=eris)
results.append((nvir, ipe, eae, eee))

# Save the results
with open('water_nto.dat', 'w') as f:
    f.write('nvir_act ipe eae eee\n')
    for r in results:
        f.write('%d %f %f %f\n' % r)

# Print the results
for r in results:
    print('%d %f %f %f' % r)

#INFO: ******************** input file end ********************


System: uname_result(system='Linux', node='2402-node0019', release='5.14.0-362.18.1.el9_3.x86_64', version='#1 SMP PREEMPT_DYNAMIC Wed Jan 3 15:54:45 EST 2024', machine='x86_64')  Threads 80
Python 3.11.9 (main, Jun  6 2024, 15:06:21) [GCC 14.1.0]
numpy 1.26.4  scipy 1.13.1  h5py 3.11.0
Date: Sat Aug  3 21:21:54 2024
PySCF version 2.6.2
PySCF path  /insomnia001/depts/berkelbach/users/eav2136/build/pyscf/develop/pyscf
GIT HEAD (branch master) ca8c7c1680defdfee2380eda3af3a28d9fb375cb

[ENV] PYSCF_MAX_MEMORY 500000
[CONFIG] ARGPARSE = False
[CONFIG] DEBUG = False
[CONFIG] MAX_MEMORY = 500000
[CONFIG] TMPDIR = /tmp
[CONFIG] UNIT = angstrom
[CONFIG] VERBOSE = 3
[CONFIG] conf_file = None
[INPUT] verbose = 7
[INPUT] max_memory = 500000 
[INPUT] num. atoms = 3
[INPUT] num. electrons = 10
[INPUT] charge = 0
[INPUT] spin (= nelec alpha-beta = 2S) = 0
[INPUT] symmetry False subgroup None
[INPUT] Mole.unit = angstrom
[INPUT] Symbol           X                Y                Z      unit          X                Y                Z       unit  Magmom
[INPUT]  1 O      0.000000000000   0.000000000000   0.117793000000 AA    0.000000000000   0.000000000000   0.222596509391 Bohr   0.0
[INPUT]  2 H      0.000000000000   0.755415000000  -0.471174000000 AA    0.000000000000   1.427527460388  -0.890389817016 Bohr   0.0
[INPUT]  3 H      0.000000000000  -0.755415000000  -0.471174000000 AA    0.000000000000  -1.427527460388  -0.890389817016 Bohr   0.0
[INPUT] ---------------- BASIS SET ---------------- 
[INPUT] l, kappa, [nprim/nctr], expnt,             c_1 c_2 ...
[INPUT] O
[INPUT] 0    0    [8    /2   ]  15330             0.000508 -0.000115
                                2299              0.003929 -0.000895
                                522.4             0.020243 -0.004636
                                147.3             0.079181 -0.018724
                                47.55             0.230687 -0.058463
                                16.76             0.433118 -0.136463
                                6.207             0.35026 -0.17574
                                0.6882            -0.008154 0.603418
[INPUT] 0    0    [1    /1   ]  1.752                1
[INPUT] 0    0    [1    /1   ]  0.2384               1
[INPUT] 1    0    [3    /1   ]  34.46             0.015928
                                7.749             0.09974
                                2.28              0.310492
[INPUT] 1    0    [1    /1   ]  0.7156               1
[INPUT] 1    0    [1    /1   ]  0.214                1
[INPUT] 2    0    [1    /1   ]  2.314                1
[INPUT] 2    0    [1    /1   ]  0.645                1
[INPUT] 3    0    [1    /1   ]  1.428                1
[INPUT] H
[INPUT] 0    0    [3    /1   ]  33.87             0.006068
                                5.095             0.045308
                                1.159             0.202822
[INPUT] 0    0    [1    /1   ]  0.3258               1
[INPUT] 0    0    [1    /1   ]  0.1027               1
[INPUT] 1    0    [1    /1   ]  1.407                1
[INPUT] 1    0    [1    /1   ]  0.388                1
[INPUT] 2    0    [1    /1   ]  1.057                1

nuclear repulsion = 9.18939660749144
number of shells = 21
number of NR pGTOs = 74
number of NR cGTOs = 58
basis = ccpvtz
ecp = {}
bas 0, expnt(s) = [1.533e+04 2.299e+03 5.224e+02 1.473e+02 4.755e+01 1.676e+01 6.207e+00
 6.882e-01]
bas 1, expnt(s) = [1.752]
bas 2, expnt(s) = [0.2384]
bas 3, expnt(s) = [34.46   7.749  2.28 ]
bas 4, expnt(s) = [0.7156]
bas 5, expnt(s) = [0.214]
bas 6, expnt(s) = [2.314]
bas 7, expnt(s) = [0.645]
bas 8, expnt(s) = [1.428]
bas 9, expnt(s) = [33.87   5.095  1.159]
bas 10, expnt(s) = [0.3258]
bas 11, expnt(s) = [0.1027]
bas 12, expnt(s) = [1.407]
bas 13, expnt(s) = [0.388]
bas 14, expnt(s) = [1.057]
bas 15, expnt(s) = [33.87   5.095  1.159]
bas 16, expnt(s) = [0.3258]
bas 17, expnt(s) = [0.1027]
bas 18, expnt(s) = [1.407]
bas 19, expnt(s) = [0.388]
bas 20, expnt(s) = [1.057]
CPU time:         0.30


******** <class 'pyscf.df.df_jk.DFRHF'> ********
method = DFRHF
initial guess = minao
damping factor = 0
level_shift factor = 0
DIIS = <class 'pyscf.scf.diis.CDIIS'>
diis_start_cycle = 1
diis_space = 8
diis_damp = 0
SCF conv_tol = 1e-09
SCF conv_tol_grad = None
SCF max_cycles = 50
direct_scf = False
chkfile to save SCF result = /tmp/tmpbcqq88k7
max_memory 500000 MB (current use 67 MB)
cond(S) = 2042.2665713280383
Set gradient conv threshold to 3.16228e-05
Initial guess from minao.
Nelec from initial guess = 9.995443437972469
******** <class 'pyscf.df.df.DF'> ********
auxbasis = None
max_memory = 500000
Default auxbasis cc-pvtz-jkfit is used for O ccpvtz
Default auxbasis cc-pvtz-jkfit is used for H ccpvtz
num shells = 45, num cGTOs = 139
size of aux basis 139
    CPU time for 2c2e      0.13 sec, wall time      0.00 sec
shranges = [(0, 21, 1711)]
int3c2e [1/1], AO [0:21], nrow = 1711
    CPU time for cholesky_eri      0.28 sec, wall time      0.00 sec
    CPU time for jk      0.72 sec, wall time      0.01 sec
    CPU time for df vj and vk      0.72 sec, wall time      0.01 sec
E1 = -121.6917940820865  E_coul = 36.62326773696756
init E= -75.8791297376275
    CPU time for initialize scf      1.55 sec, wall time      0.04 sec
  HOMO = -0.478479884030114  LUMO = 0.0772846840116736
  mo_energy =
[-20.77887264  -1.62048295  -0.75231669  -0.59084283  -0.47847988
   0.07728468   0.1702445    0.478116     0.54589943   0.60067644
   0.70510125   0.73025236   0.76805905   0.845398     0.92514459
   1.03662409   1.19458801   1.48506232   1.51892241   1.9387172
   1.96541729   1.99349531   2.08745861   2.12892822   2.54414349
   2.89457268   3.31824461   3.46128239   3.56310279   3.64857712
   3.69023769   3.83629514   3.89535794   3.94560854   3.99841304
   4.03278774   4.11017825   4.27805614   4.32161539   4.56486742
   4.57759203   4.81026479   5.0684071    5.13387592   5.39828519
   5.91229662   6.45657024   6.75494989   6.76795544   6.85203899
   6.8713866    6.93373936   7.00552064   7.09874762   7.29840068
   7.65111327   8.16314766  12.73471292]
    CPU time for jk      0.08 sec, wall time      0.00 sec
    CPU time for df vj and vk      0.08 sec, wall time      0.00 sec
E1 = -124.05933872893945  E_coul = 38.849526444210866
cycle= 1 E= -76.0204156772371  delta_E= -0.141  |g|= 0.443  |ddm|=    1
    CPU time for cycle= 1      0.24 sec, wall time      0.00 sec
diis-norm(errvec)=0.627069
diis-c [-0.39321503  1.        ]
  HOMO = -0.4288174306153  LUMO = 0.141325260027503
  mo_energy =
[-20.32666175  -1.28250078  -0.66380882  -0.50368777  -0.42881743
   0.14132526   0.20228066   0.55047436   0.59990485   0.69380101
   0.80089707   0.82609731   0.83068844   0.8561213    0.95573374
   1.18136738   1.18829059   1.53800599   1.57707154   2.0764397
   2.08005326   2.10903062   2.20067248   2.28362212   2.58616549
   2.97936058   3.34696562   3.47775497   3.56300484   3.63712355
   3.83415631   3.85568537   3.87237493   3.94282853   4.0287027
   4.086482     4.21429605   4.31220034   4.42723458   4.58981693
   4.7415189    4.88346318   5.19555754   5.31722792   5.59579287
   6.12607637   6.6316209    7.01045431   7.05903832   7.11320818
   7.11539745   7.12724281   7.287219     7.316626     7.56112396
   7.88040419   8.36718344  12.95754848]
    CPU time for jk      0.08 sec, wall time      0.00 sec
    CPU time for df vj and vk      0.08 sec, wall time      0.00 sec
E1 = -122.41059853381586  E_coul = 37.17390207989794
cycle= 2 E= -76.0472998464265  delta_E= -0.0269  |g|= 0.253  |ddm|= 0.314
    CPU time for cycle= 2      0.32 sec, wall time      0.00 sec
diis-norm(errvec)=0.358282
diis-c [-0.0167592   0.35253647  0.64746353]
  HOMO = -0.509723022673736  LUMO = 0.138446634895733
  mo_energy =
[-20.57614362  -1.35526094  -0.71877503  -0.58360105  -0.50972302
   0.13844663   0.20033853   0.53755748   0.59589235   0.66603727
   0.78491302   0.79319447   0.80175405   0.85534876   0.94883214
   1.13132279   1.19263488   1.51726651   1.55701836   2.03344602
   2.04891453   2.05994739   2.16461952   2.23057677   2.57638333
   2.95440348   3.34243913   3.47907177   3.57256134   3.64706823
   3.78842882   3.86544737   3.87347675   3.95149846   4.0072012
   4.06351711   4.18083761   4.30170331   4.3752308    4.57802742
   4.67578935   4.85315276   5.14714471   5.24405853   5.5196461
   6.04853545   6.56585218   6.91641213   6.93661317   7.00162465
   7.0133421    7.0482517    7.16863978   7.23422592   7.45020497
   7.79029218   8.27999646  12.85158437]
    CPU time for jk      0.08 sec, wall time      0.00 sec
    CPU time for df vj and vk      0.08 sec, wall time      0.00 sec
E1 = -123.1499939452121  E_coul = 37.90366863631629
cycle= 3 E= -76.0569287014044  delta_E= -0.00963  |g|= 0.0245  |ddm|= 0.0967
    CPU time for cycle= 3      0.32 sec, wall time      0.00 sec
diis-norm(errvec)=0.0346732
diis-c [-8.70618600e-04 -6.13435286e-03  3.98463108e-02  9.66288042e-01]
  HOMO = -0.503302666960142  LUMO = 0.142196829204617
  mo_energy =
[-20.55342997  -1.34507623  -0.70904019  -0.57803337  -0.50330267
   0.14219683   0.20370262   0.54300483   0.60330679   0.66839515
   0.78815871   0.7986049    0.80527397   0.86167241   0.95348289
   1.13286969   1.19768614   1.52504065   1.56627296   2.03901522
   2.05346958   2.06525426   2.17235788   2.23475782   2.58721852
   2.96418227   3.35226126   3.4889889    3.58539603   3.65772105
   3.8004071    3.87834565   3.88492369   3.96227989   4.01788663
   4.07452556   4.19254128   4.31102533   4.38307809   4.58944868
   4.68586111   4.86468376   5.16029459   5.25336958   5.52967199
   6.05810343   6.57810455   6.92789509   6.94928418   7.00930776
   7.02767844   7.05792771   7.17809663   7.24198366   7.45948272
   7.79918561   8.29600778  12.86704493]
    CPU time for jk      0.08 sec, wall time      0.00 sec
    CPU time for df vj and vk      0.08 sec, wall time      0.00 sec
E1 = -123.10409093451406  E_coul = 37.857617361324266
cycle= 4 E= -76.0570769656984  delta_E= -0.000148  |g|= 0.006  |ddm|= 0.0184
    CPU time for cycle= 4      0.32 sec, wall time      0.00 sec
diis-norm(errvec)=0.00848682
diis-c [-3.31343616e-05 -1.43952735e-02 -3.41504555e-02 -9.89154993e-02
  1.14746123e+00]
  HOMO = -0.50428508989946  LUMO = 0.142248961030201
  mo_energy =
[-20.5549908   -1.34560749  -0.70889444  -0.57828496  -0.50428509
   0.14224896   0.20403201   0.54337233   0.60348469   0.66832971
   0.78761865   0.79881843   0.80560338   0.86193921   0.95366361
   1.13291777   1.19805099   1.52551291   1.56631044   2.0389703
   2.05352187   2.06533913   2.17241173   2.23455649   2.58803416
   2.9649248    3.3528904    3.48964143   3.58580665   3.65853244
   3.800364     3.87900842   3.88609607   3.96340187   4.01866285
   4.07533349   4.19308351   4.31162748   4.38374782   4.59015652
   4.68559767   4.86514265   5.16020532   5.25348956   5.52941636
   6.05770419   6.57783425   6.92755091   6.94850769   7.00918653
   7.02682346   7.0579159    7.17792094   7.24209083   7.45936082
   7.79945482   8.29574631  12.86660993]
    CPU time for jk      0.08 sec, wall time      0.00 sec
    CPU time for df vj and vk      0.08 sec, wall time      0.00 sec
E1 = -123.1087934733602  E_coul = 37.86230458440218
cycle= 5 E= -76.0570922814666  delta_E= -1.53e-05  |g|= 0.00121  |ddm|= 0.00814
    CPU time for cycle= 5      0.32 sec, wall time      0.00 sec
diis-norm(errvec)=0.00170821
diis-c [-7.91048549e-07  2.58068109e-03  5.44058478e-03 -3.33299344e-03
 -2.82148017e-01  1.27745974e+00]
  HOMO = -0.504466804701986  LUMO = 0.142225031879756
  mo_energy =
[-20.55501065  -1.34560559  -0.70870268  -0.57833366  -0.5044668
   0.14222503   0.20408358   0.54334596   0.60342555   0.66829656
   0.78748579   0.79882311   0.80565679   0.86194376   0.95367351
   1.13292987   1.1980349    1.52555773   1.56631318   2.03898296
   2.05349732   2.06532335   2.17239818   2.23455135   2.58803552
   2.96495261   3.35288489   3.48967189   3.58580646   3.65854109
   3.80034745   3.87898634   3.88615856   3.96344921   4.01872804
   4.07540316   4.19314252   4.31166223   4.38376706   4.59019216
   4.68563161   4.86515811   5.16022184   5.25351333   5.52941019
   6.05771262   6.57787524   6.92756992   6.94846661   7.00920188
   7.02674348   7.0578047    7.17794129   7.24208531   7.45928668
   7.79942403   8.29572484  12.86660892]
    CPU time for jk      0.08 sec, wall time      0.00 sec
    CPU time for df vj and vk      0.08 sec, wall time      0.00 sec
E1 = -123.10834147220251  E_coul = 37.861851731241295
cycle= 6 E= -76.0570931334698  delta_E= -8.52e-07  |g|= 0.000208  |ddm|= 0.00174
    CPU time for cycle= 6      0.24 sec, wall time      0.00 sec
diis-norm(errvec)=0.000293709
diis-c [-1.74646640e-08 -6.03233433e-04 -1.50931910e-03  1.57215626e-03
  7.47974933e-02 -4.40721783e-01  1.36646469e+00]
  HOMO = -0.504550122166902  LUMO = 0.142215622873438
  mo_energy =
[-20.5550567   -1.3456381   -0.70868644  -0.57838648  -0.50455012
   0.14221562   0.20409466   0.54333654   0.60340811   0.66827521
   0.78744024   0.79881598   0.80566184   0.86193677   0.95366666
   1.13290899   1.19803052   1.52556028   1.56630434   2.03895463
   2.05348025   2.06529326   2.17237829   2.23451907   2.58802239
   2.96493818   3.35287279   3.48966619   3.58579978   3.65853686
   3.80031669   3.87897113   3.88616242   3.96344611   4.01872231
   4.07539978   4.19312974   4.31165165   4.38374518   4.5901894
   4.68560622   4.86514433   5.16020201   5.25348519   5.52937743
   6.0576787    6.57785246   6.92753369   6.94841891   7.00916135
   7.02669869   7.05775816   7.17790142   7.2420479    7.45923717
   7.79938282   8.29569001  12.86657876]
    CPU time for jk      0.08 sec, wall time      0.00 sec
    CPU time for df vj and vk      0.08 sec, wall time      0.00 sec
E1 = -123.10839257354223  E_coul = 37.86190280693256
cycle= 7 E= -76.0570931591182  delta_E= -2.56e-08  |g|= 2.84e-05  |ddm|= 0.000291
    CPU time for cycle= 7      0.32 sec, wall time      0.00 sec
diis-norm(errvec)=4.01052e-05
diis-c [-2.32707483e-10  1.35948962e-04  3.87727176e-04 -4.55903943e-04
 -1.70532211e-02  1.08775371e-01 -4.25910315e-01  1.33412039e+00]
  HOMO = -0.504552770844789  LUMO = 0.142215419345335
  mo_energy =
[-20.55505044  -1.34563562  -0.70867663  -0.57838577  -0.50455277
   0.14221542   0.20409668   0.54333666   0.60340818   0.66827386
   0.78743621   0.7988163    0.80566478   0.86193709   0.95366704
   1.1329088    1.19803181   1.52556225   1.5663053    2.0389545
   2.05348103   2.06529353   2.17237949   2.23451866   2.58802301
   2.96493923   3.35287379   3.48966729   3.58580086   3.65853854
   3.80031697   3.87897209   3.88616418   3.96344728   4.01872327
   4.07540197   4.19313136   4.31165243   4.38374647   4.59019176
   4.68560701   4.86514571   5.16020355   5.25348661   5.52937873
   6.05768029   6.57785453   6.92753596   6.94842107   7.00916306
   7.02670061   7.05775905   7.17790403   7.24204909   7.45923866
   7.79938452   8.29569165  12.86658134]
    CPU time for jk      0.08 sec, wall time      0.00 sec
    CPU time for df vj and vk      0.08 sec, wall time      0.00 sec
E1 = -123.10838401611791  E_coul = 37.861894249109305
cycle= 8 E= -76.0570931595172  delta_E= -3.99e-10  |g|= 2.69e-06  |ddm|= 4.72e-05
    CPU time for cycle= 8      0.40 sec, wall time      0.01 sec
  HOMO = -0.50455213025384  LUMO = 0.142215570037822
  mo_energy =
[-20.55504894  -1.34563495  -0.7086763   -0.57838544  -0.50455213
   0.14221557   0.20409683   0.54333713   0.60340839   0.66827427
   0.78743682   0.79881658   0.80566527   0.86193723   0.95366729
   1.13290938   1.19803193   1.52556262   1.56630562   2.03895512
   2.05348151   2.06529414   2.17238006   2.23451932   2.58802333
   2.96493966   3.35287411   3.48966756   3.58580112   3.65853871
   3.80031764   3.87897247   3.88616419   3.96344744   4.01872346
   4.07540225   4.19313177   4.31165271   4.38374701   4.59019204
   4.6856077    4.86514616   5.16020418   5.25348737   5.52937957
   6.05768126   6.57785536   6.92753696   6.94842218   7.00916402
   7.02670169   7.05775989   7.17790511   7.24204995   7.45923966
   7.79938544   8.29569256  12.86658223]
    CPU time for jk      0.00 sec, wall time      0.00 sec
    CPU time for df vj and vk      0.08 sec, wall time      0.00 sec
E1 = -123.10838031349728  E_coul = 37.861890546485434
Extra cycle  E= -76.0570931595204  delta_E= -3.24e-12  |g|= 1.04e-06  |ddm|= 4.49e-06
    CPU time for scf_cycle      4.33 sec, wall time      0.07 sec
    CPU time for SCF      4.54 sec, wall time      0.08 sec
converged SCF energy = -76.0570931595204


******** <class 'pyscf.tdscf.rhf.TDA'> for <class 'pyscf.df.df_jk.DFRHF'> ********
nstates = 3 singlet
deg_eia_thresh = 1.000e-03
wfnsym = None
conv_tol = 1e-09
eigh lindep = 1e-12
eigh level_shift = 0
eigh max_space = 50
eigh max_cycle = 100
chkfile = /tmp/tmpbcqq88k7
max_memory 500000 MB (current use 388 MB)


tol 1e-09  toloose 3.16228e-05
max_cycle 100  max_space 58  max_memory 2000  incore True
    CPU time for jk      0.38 sec, wall time      0.01 sec
    CPU time for df vj and vk      0.38 sec, wall time      0.01 sec
davidson 0 3  |r|= 0.124  e= [0.35397376 0.4337836  0.44469153]  max|de|= 0.445  lindep=    1
    CPU time for jk      0.24 sec, wall time      0.00 sec
    CPU time for df vj and vk      0.24 sec, wall time      0.00 sec
davidson 1 6  |r|= 0.0553  e= [0.33462111 0.4007516  0.42840248]  max|de|= -0.033  lindep= 0.969
    CPU time for jk      0.16 sec, wall time      0.00 sec
    CPU time for df vj and vk      0.16 sec, wall time      0.00 sec
davidson 2 9  |r|= 0.0159  e= [0.3340573  0.39938934 0.42582578]  max|de|= -0.00258  lindep= 0.848
    CPU time for jk      0.24 sec, wall time      0.00 sec
    CPU time for df vj and vk      0.24 sec, wall time      0.00 sec
davidson 3 12  |r|= 0.005  e= [0.33403523 0.39927542 0.42566721]  max|de|= -0.000159  lindep= 0.831
    CPU time for jk      0.24 sec, wall time      0.00 sec
    CPU time for df vj and vk      0.24 sec, wall time      0.00 sec
davidson 4 15  |r|= 0.00137  e= [0.33403491 0.39927459 0.42565781]  max|de|= -9.4e-06  lindep= 0.776
    CPU time for jk      0.16 sec, wall time      0.00 sec
    CPU time for df vj and vk      0.16 sec, wall time      0.00 sec
davidson 5 18  |r|= 0.000666  e= [0.33403489 0.39927458 0.42565681]  max|de|= -1e-06  lindep= 0.823
    CPU time for jk      0.16 sec, wall time      0.00 sec
    CPU time for df vj and vk      0.16 sec, wall time      0.00 sec
root 0 converged  |r|= 5.59e-06  e= 0.33403489387065727  max|de|= -2.25e-10
root 1 converged  |r|= 6.99e-06  e= 0.3992745819162491  max|de|= -1.45e-10
davidson 6 21  |r|= 9.74e-05  e= [0.33403489 0.39927458 0.42565675]  max|de|= -5.92e-08  lindep= 0.751
    CPU time for jk      0.08 sec, wall time      0.00 sec
    CPU time for df vj and vk      0.08 sec, wall time      0.00 sec
davidson 7 22  |r|= 1.86e-05  e= [0.33403489 0.39927458 0.42565674]  max|de|= -2.91e-09  lindep= 0.819
    CPU time for jk      0.08 sec, wall time      0.00 sec
    CPU time for df vj and vk      0.08 sec, wall time      0.00 sec
root 2 converged  |r|= 3.55e-06  e= 0.42565674348201316  max|de|= -1.4e-10
converged 8 23  |r|= 6.99e-06  e= [0.33403489 0.39927458 0.42565674]  max|de|= -1.4e-10
    CPU time for TDA      2.84 sec, wall time      0.04 sec
Excited State energies (eV)
[ 9.08955244 10.86481478 11.58270996]
State 1: 9.08955 eV  NTO largest component 0.9996934546633346
    occ-NTO: 1.000000 (MO #5)
    vir-NTO: 0.978933 (MO #6)

******** <class 'pyscf.mp.dfmp2.DFMP2'> ********
nocc = 5, nmo = 58
max_memory 500000 MB (current use 422 MB)
    CPU time for jk      0.07 sec, wall time      0.00 sec
    CPU time for df vj and vk      0.07 sec, wall time      0.00 sec
E1 = -123.10838031349728  E_coul = 37.861890546485434
Load cderi step 0
E(DFMP2) = -76.3323055307462  E_corr = -0.275212371225851
E(SCS-DFMP2) = -76.3292904178179  E_corr = -0.272197258297524
E_corr(same-spin) = -0.0669895236617274
E_corr(oppo-spin) = -0.208222847564124
    CPU time for jk      0.08 sec, wall time      0.00 sec
    CPU time for df vj and vk      0.08 sec, wall time      0.00 sec

******** <class 'pyscf.cc.dfccsd.RCCSD'> ********
CC2 = 0
CCSD nocc = 5, nmo = 6
frozen orbitals [6, 7, 8, 9, 10, 11, 12, 13, 14, 15, 16, 17, 18, 19, 20, 21, 22, 23, 24, 25, 26, 27, 28, 29, 30, 31, 32, 33, 34, 35, 36, 37, 38, 39, 40, 41, 42, 43, 44, 45, 46, 47, 48, 49, 50, 51, 52, 53, 54, 55, 56, 57]
max_cycle = 50
direct = 0
conv_tol = 1e-07
conv_tol_normt = 1e-05
diis_space = 6
diis_start_cycle = 0
diis_start_energy_diff = 1e+09
max_memory 500000 MB (current use 422 MB)
    CPU time for jk      0.08 sec, wall time      0.00 sec
    CPU time for df vj and vk      0.08 sec, wall time      0.00 sec
E1 = -123.10838031349735  E_coul = 37.861890546485455
Init t2, MP2 energy = -76.0590420229515  E_corr(MP2) -0.00194886343103381
    CPU time for init mp2      0.08 sec, wall time      0.00 sec
Init E_corr(RCCSD) = -0.00194886343126428
    CPU time for vvvv [0:1,0:1]      0.01 sec, wall time      0.00 sec
    CPU time for vvvv      0.01 sec, wall time      0.00 sec
max_memory 499577 MB,  nocc,nvir = 5,1  blksize = 1
    CPU time for vovv [0:1]      0.08 sec, wall time      0.00 sec
    CPU time for ovvv      0.23 sec, wall time      0.00 sec
max_memory 499576 MB,  nocc,nvir = 5,1  blksize = 1
    CPU time for voov [0:1]      0.08 sec, wall time      0.00 sec
    CPU time for update t1 t2      0.40 sec, wall time      0.01 sec
DIIS for step 0
cycle = 1  E_corr(RCCSD) = -0.00231978754984286  dE = -0.000370924119  norm(t1,t2) = 0.00659945
    CPU time for RCCSD iter      0.40 sec, wall time      0.01 sec
    CPU time for vvvv [0:1,0:1]      0.00 sec, wall time      0.00 sec
    CPU time for vvvv      0.08 sec, wall time      0.00 sec
max_memory 499576 MB,  nocc,nvir = 5,1  blksize = 1
    CPU time for vovv [0:1]      0.08 sec, wall time      0.00 sec
    CPU time for ovvv      0.16 sec, wall time      0.00 sec
max_memory 499576 MB,  nocc,nvir = 5,1  blksize = 1
    CPU time for voov [0:1]      0.16 sec, wall time      0.00 sec
    CPU time for update t1 t2      0.48 sec, wall time      0.01 sec
diis-c [-1.1404452e-05  1.0000000e+00]
DIIS for step 1
cycle = 2  E_corr(RCCSD) = -0.00247708184138109  dE = -0.000157294292  norm(t1,t2) = 0.00337705
    CPU time for RCCSD iter      0.48 sec, wall time      0.01 sec
    CPU time for vvvv [0:1,0:1]      0.08 sec, wall time      0.00 sec
    CPU time for vvvv      0.08 sec, wall time      0.00 sec
max_memory 499576 MB,  nocc,nvir = 5,1  blksize = 1
    CPU time for vovv [0:1]      0.08 sec, wall time      0.00 sec
    CPU time for ovvv      0.16 sec, wall time      0.00 sec
max_memory 499576 MB,  nocc,nvir = 5,1  blksize = 1
    CPU time for voov [0:1]      0.08 sec, wall time      0.00 sec
    CPU time for update t1 t2      0.39 sec, wall time      0.00 sec
diis-c [-7.38550477e-07 -8.45138943e-01  1.84513894e+00]
DIIS for step 2
cycle = 3  E_corr(RCCSD) = -0.00259182532435865  dE = -0.000114743483  norm(t1,t2) = 0.00172517
    CPU time for RCCSD iter      0.40 sec, wall time      0.01 sec
    CPU time for vvvv [0:1,0:1]      0.08 sec, wall time      0.00 sec
    CPU time for vvvv      0.08 sec, wall time      0.00 sec
max_memory 499576 MB,  nocc,nvir = 5,1  blksize = 1
    CPU time for vovv [0:1]      0.08 sec, wall time      0.00 sec
    CPU time for ovvv      0.16 sec, wall time      0.00 sec
max_memory 499576 MB,  nocc,nvir = 5,1  blksize = 1
    CPU time for voov [0:1]      0.08 sec, wall time      0.00 sec
    CPU time for update t1 t2      0.40 sec, wall time      0.00 sec
diis-c [-6.43052378e-08  2.06309817e-01 -6.30715383e-01  1.42440557e+00]
DIIS for step 3
cycle = 4  E_corr(RCCSD) = -0.0026064134505223  dE = -1.45881262e-05  norm(t1,t2) = 0.000400014
    CPU time for RCCSD iter      0.48 sec, wall time      0.01 sec
    CPU time for vvvv [0:1,0:1]      0.00 sec, wall time      0.00 sec
    CPU time for vvvv      0.00 sec, wall time      0.00 sec
max_memory 499576 MB,  nocc,nvir = 5,1  blksize = 1
    CPU time for vovv [0:1]      0.00 sec, wall time      0.00 sec
    CPU time for ovvv      0.16 sec, wall time      0.00 sec
max_memory 499576 MB,  nocc,nvir = 5,1  blksize = 1
    CPU time for voov [0:1]      0.16 sec, wall time      0.00 sec
    CPU time for update t1 t2      0.32 sec, wall time      0.00 sec
diis-c [-3.48749457e-09  9.30100327e-02 -1.45023883e-01 -1.31129364e-01
  1.18314321e+00]
DIIS for step 4
cycle = 5  E_corr(RCCSD) = -0.00260183200894046  dE = 4.58144158e-06  norm(t1,t2) = 0.000108102
    CPU time for RCCSD iter      0.40 sec, wall time      0.01 sec
    CPU time for vvvv [0:1,0:1]      0.00 sec, wall time      0.00 sec
    CPU time for vvvv      0.00 sec, wall time      0.00 sec
max_memory 499576 MB,  nocc,nvir = 5,1  blksize = 1
    CPU time for vovv [0:1]      0.00 sec, wall time      0.00 sec
    CPU time for ovvv      0.16 sec, wall time      0.00 sec
max_memory 499576 MB,  nocc,nvir = 5,1  blksize = 1
    CPU time for voov [0:1]      0.16 sec, wall time      0.00 sec
    CPU time for update t1 t2      0.32 sec, wall time      0.00 sec
diis-c [-2.12361791e-11 -3.45716158e-02  6.09903749e-02 -1.44489155e-02
 -3.73841663e-01  1.36187182e+00]
DIIS for step 5
cycle = 6  E_corr(RCCSD) = -0.00260230119961236  dE = -4.69190672e-07  norm(t1,t2) = 1.90718e-05
    CPU time for RCCSD iter      0.40 sec, wall time      0.01 sec
    CPU time for vvvv [0:1,0:1]      0.00 sec, wall time      0.00 sec
    CPU time for vvvv      0.00 sec, wall time      0.00 sec
max_memory 499576 MB,  nocc,nvir = 5,1  blksize = 1
    CPU time for vovv [0:1]      0.00 sec, wall time      0.00 sec
    CPU time for ovvv      0.16 sec, wall time      0.00 sec
max_memory 499576 MB,  nocc,nvir = 5,1  blksize = 1
    CPU time for voov [0:1]      0.16 sec, wall time      0.00 sec
    CPU time for update t1 t2      0.32 sec, wall time      0.00 sec
diis-c [-2.03991167e-15  1.09984384e-02 -1.90588956e-02  3.93202083e-03
  1.27088586e-01 -4.77133147e-01  1.35417300e+00]
DIIS for step 6
cycle = 7  E_corr(RCCSD) = -0.002602287103179  dE = 1.40964334e-08  norm(t1,t2) = 1.27561e-06
    CPU time for RCCSD iter      0.40 sec, wall time      0.01 sec
    CPU time for RCCSD      2.94 sec, wall time      0.04 sec
RCCSD converged
E(RCCSD) = -76.05969544662362  E_corr = -0.002602287103178999

******** <class 'pyscf.cc.eom_rccsd.EOMIP'> ********
max_space = 20
max_cycle = 50
conv_tol = 1e-07
partition = None
max_memory 500000 MB (current use 423 MB)
    CPU time for EOM-CCSD shared one-electron intermediates      0.08 sec, wall time      0.00 sec
    CPU time for EOM-CCSD shared two-electron intermediates      0.08 sec, wall time      0.00 sec
    CPU time for EOM-CCSD IP intermediates      0.08 sec, wall time      0.00 sec
tol 1e-07  toloose 0.000316228
max_cycle 50  max_space 20  max_memory 2000  incore True
davidson 0 1  |r|= 0.123  e= [0.50575047]  max|de|= 0.506  lindep=    1
davidson 1 2  |r|= 0.0306  e= [0.48624619]  max|de|= -0.0195  lindep= 0.997
davidson 2 3  |r|= 0.00297  e= [0.48376389]  max|de|= -0.00248  lindep= 0.997
davidson 3 4  |r|= 0.000363  e= [0.48378714]  max|de|= 2.32e-05  lindep= 0.984
davidson 4 5  |r|= 5.93e-05  e= [0.4837504]  max|de|= -3.67e-05  lindep= 0.876
Drop eigenvector 0, norm=4.86e-08
davidson 5 6  |r|= 4.86e-08  e= [0.48375026]  max|de|= -1.4e-07  lindep=    1
Linear dependency in trial subspace. |r| for each state [4.8570949e-08]
EOM-CCSD root 0 E = 0.4837502649689118  qpwt = 0.988573  conv = True
    CPU time for EOM-CCSD      0.47 sec, wall time      0.01 sec

******** <class 'pyscf.cc.eom_rccsd.EOMEA'> ********
max_space = 20
max_cycle = 50
conv_tol = 1e-07
partition = None
max_memory 500000 MB (current use 423 MB)
    CPU time for EOM-CCSD shared one-electron intermediates      0.08 sec, wall time      0.00 sec
    CPU time for EOM-CCSD shared two-electron intermediates      0.00 sec, wall time      0.00 sec
    CPU time for EOM-CCSD EA intermediates      0.08 sec, wall time      0.00 sec
tol 1e-07  toloose 0.000316228
max_cycle 50  max_space 20  max_memory 2000  incore True
davidson 0 1  |r|= 0.0259  e= [0.16946658]  max|de|= 0.169  lindep=    1
davidson 1 2  |r|= 0.00561  e= [0.16882261]  max|de|= -0.000644  lindep= 0.985
davidson 2 3  |r|= 0.000301  e= [0.16870838]  max|de|= -0.000114  lindep= 0.999
root 0 converged  |r|= 1.07e-15  e= 0.16870837548606657  max|de|= -8.03e-09
converged 3 4  |r|= 1.07e-15  e= [0.16870838]  max|de|= -8.03e-09
EOM-CCSD root 0 E = 0.1687083754860666  qpwt = 0.99919  conv = True
    CPU time for EOM-CCSD      0.32 sec, wall time      0.00 sec

******** <class 'pyscf.cc.eom_rccsd.EOMEESinglet'> ********
max_space = 20
max_cycle = 50
conv_tol = 1e-07
partition = None
max_memory 500000 MB (current use 423 MB)
    CPU time for EOM-CCSD EE intermediates      0.24 sec, wall time      0.00 sec
    CPU time for jk      0.08 sec, wall time      0.00 sec
    CPU time for df vj and vk      0.08 sec, wall time      0.00 sec
    CPU time for EOM-CCSD EE intermediates      0.24 sec, wall time      0.00 sec
tol 1e-07  toloose 0.000316228
max_cycle 50  max_space 20  max_memory 2000  incore True
    CPU time for vvvv [0:1,0:1]      0.00 sec, wall time      0.00 sec
davidson 0 1  |r|= 0.12  e= [0.33775158]  max|de|= 0.338  lindep=    1
    CPU time for vvvv [0:1,0:1]      0.08 sec, wall time      0.00 sec
davidson 1 2  |r|= 0.0315  e= [0.32570845]  max|de|= -0.012  lindep= 0.992
    CPU time for vvvv [0:1,0:1]      0.00 sec, wall time      0.00 sec
davidson 2 3  |r|= 0.00165  e= [0.32476774]  max|de|= -0.000941  lindep= 0.999
    CPU time for vvvv [0:1,0:1]      0.00 sec, wall time      0.00 sec
Drop eigenvector 0, norm=3.9e-15
davidson 3 4  |r|= 3.9e-15  e= [0.32476762]  max|de|= -1.11e-07  lindep=    1
Linear dependency in trial subspace. |r| for each state [3.90190844e-15]
EOM-CCSD root 0 E = 0.3247676242992424  qpwt = 0.985262  conv = True
    CPU time for EOM-CCSD      1.51 sec, wall time      0.02 sec
    CPU time for jk      0.08 sec, wall time      0.00 sec
    CPU time for df vj and vk      0.08 sec, wall time      0.00 sec

******** <class 'pyscf.cc.dfccsd.RCCSD'> ********
CC2 = 0
CCSD nocc = 5, nmo = 7
frozen orbitals [7, 8, 9, 10, 11, 12, 13, 14, 15, 16, 17, 18, 19, 20, 21, 22, 23, 24, 25, 26, 27, 28, 29, 30, 31, 32, 33, 34, 35, 36, 37, 38, 39, 40, 41, 42, 43, 44, 45, 46, 47, 48, 49, 50, 51, 52, 53, 54, 55, 56, 57]
max_cycle = 50
direct = 0
conv_tol = 1e-07
conv_tol_normt = 1e-05
diis_space = 6
diis_start_cycle = 0
diis_start_energy_diff = 1e+09
max_memory 500000 MB (current use 423 MB)
    CPU time for jk      0.08 sec, wall time      0.00 sec
    CPU time for df vj and vk      0.08 sec, wall time      0.00 sec
E1 = -123.10838031349735  E_coul = 37.861890546485455
Init t2, MP2 energy = -76.0654627448813  E_corr(MP2) -0.00836958536088207
    CPU time for init mp2      0.08 sec, wall time      0.00 sec
Init E_corr(RCCSD) = -0.00836958536111364
    CPU time for vvvv [0:1,0:1]      0.08 sec, wall time      0.00 sec
    CPU time for vvvv [1:2,0:1]      0.00 sec, wall time      0.00 sec
    CPU time for vvvv [1:2,1:2]      0.08 sec, wall time      0.00 sec
    CPU time for vvvv      0.16 sec, wall time      0.00 sec
max_memory 499576 MB,  nocc,nvir = 5,2  blksize = 2
    CPU time for vovv [0:2]      0.08 sec, wall time      0.00 sec
    CPU time for ovvv      0.16 sec, wall time      0.00 sec
max_memory 499576 MB,  nocc,nvir = 5,2  blksize = 2
    CPU time for voov [0:2]      0.08 sec, wall time      0.00 sec
    CPU time for update t1 t2      0.48 sec, wall time      0.01 sec
DIIS for step 0
cycle = 1  E_corr(RCCSD) = -0.00984019666103829  dE = -0.0014706113  norm(t1,t2) = 0.00949559
    CPU time for RCCSD iter      0.48 sec, wall time      0.01 sec
    CPU time for vvvv [0:1,0:1]      0.08 sec, wall time      0.00 sec
    CPU time for vvvv [1:2,0:1]      0.08 sec, wall time      0.00 sec
    CPU time for vvvv [1:2,1:2]      0.00 sec, wall time      0.00 sec
    CPU time for vvvv      0.16 sec, wall time      0.00 sec
max_memory 499576 MB,  nocc,nvir = 5,2  blksize = 2
    CPU time for vovv [0:2]      0.00 sec, wall time      0.00 sec
    CPU time for ovvv      0.16 sec, wall time      0.00 sec
max_memory 499576 MB,  nocc,nvir = 5,2  blksize = 2
    CPU time for voov [0:2]      0.16 sec, wall time      0.00 sec
    CPU time for update t1 t2      0.48 sec, wall time      0.01 sec
diis-c [-1.70668132e-05  1.00000000e+00]
DIIS for step 1
cycle = 2  E_corr(RCCSD) = -0.0102477667994395  dE = -0.000407570138  norm(t1,t2) = 0.0041312
    CPU time for RCCSD iter      0.56 sec, wall time      0.01 sec
    CPU time for vvvv [0:1,0:1]      0.08 sec, wall time      0.00 sec
    CPU time for vvvv [1:2,0:1]      0.00 sec, wall time      0.00 sec
    CPU time for vvvv [1:2,1:2]      0.08 sec, wall time      0.00 sec
    CPU time for vvvv      0.16 sec, wall time      0.00 sec
max_memory 499576 MB,  nocc,nvir = 5,2  blksize = 2
    CPU time for vovv [0:2]      0.08 sec, wall time      0.00 sec
    CPU time for ovvv      0.16 sec, wall time      0.00 sec
max_memory 499576 MB,  nocc,nvir = 5,2  blksize = 2
    CPU time for voov [0:2]      0.08 sec, wall time      0.00 sec
    CPU time for update t1 t2      0.48 sec, wall time      0.01 sec
diis-c [-1.50922973e-06 -7.94665375e-01  1.79466537e+00]
DIIS for step 2
cycle = 3  E_corr(RCCSD) = -0.0104761906648396  dE = -0.000228423865  norm(t1,t2) = 0.00213531
    CPU time for RCCSD iter      0.56 sec, wall time      0.01 sec
    CPU time for vvvv [0:1,0:1]      0.00 sec, wall time      0.00 sec
    CPU time for vvvv [1:2,0:1]      0.08 sec, wall time      0.00 sec
    CPU time for vvvv [1:2,1:2]      0.08 sec, wall time      0.00 sec
    CPU time for vvvv      0.16 sec, wall time      0.00 sec
max_memory 499576 MB,  nocc,nvir = 5,2  blksize = 2
    CPU time for vovv [0:2]      0.08 sec, wall time      0.00 sec
    CPU time for ovvv      0.08 sec, wall time      0.00 sec
max_memory 499576 MB,  nocc,nvir = 5,2  blksize = 2
    CPU time for voov [0:2]      0.16 sec, wall time      0.00 sec
    CPU time for update t1 t2      0.48 sec, wall time      0.01 sec
diis-c [-8.64308014e-08  2.77108800e-01 -8.51627779e-01  1.57451898e+00]
DIIS for step 3
cycle = 4  E_corr(RCCSD) = -0.0104839279964559  dE = -7.73733162e-06  norm(t1,t2) = 0.000581895
    CPU time for RCCSD iter      0.48 sec, wall time      0.01 sec
    CPU time for vvvv [0:1,0:1]      0.08 sec, wall time      0.00 sec
    CPU time for vvvv [1:2,0:1]      0.08 sec, wall time      0.00 sec
    CPU time for vvvv [1:2,1:2]      0.00 sec, wall time      0.00 sec
    CPU time for vvvv      0.16 sec, wall time      0.00 sec
max_memory 499576 MB,  nocc,nvir = 5,2  blksize = 2
    CPU time for vovv [0:2]      0.08 sec, wall time      0.00 sec
    CPU time for ovvv      0.16 sec, wall time      0.00 sec
max_memory 499576 MB,  nocc,nvir = 5,2  blksize = 2
    CPU time for voov [0:2]      0.16 sec, wall time      0.00 sec
    CPU time for update t1 t2      0.48 sec, wall time      0.01 sec
diis-c [-2.70879363e-09  7.97219273e-02 -1.62258214e-01  8.64201254e-02
  9.96116162e-01]
DIIS for step 4
cycle = 5  E_corr(RCCSD) = -0.0104746387507793  dE = 9.28924568e-06  norm(t1,t2) = 9.61245e-05
    CPU time for RCCSD iter      0.56 sec, wall time      0.01 sec
    CPU time for vvvv [0:1,0:1]      0.08 sec, wall time      0.00 sec
    CPU time for vvvv [1:2,0:1]      0.00 sec, wall time      0.00 sec
    CPU time for vvvv [1:2,1:2]      0.08 sec, wall time      0.00 sec
    CPU time for vvvv      0.16 sec, wall time      0.00 sec
max_memory 499576 MB,  nocc,nvir = 5,2  blksize = 2
    CPU time for vovv [0:2]      0.08 sec, wall time      0.00 sec
    CPU time for ovvv      0.16 sec, wall time      0.00 sec
max_memory 499576 MB,  nocc,nvir = 5,2  blksize = 2
    CPU time for voov [0:2]      0.08 sec, wall time      0.00 sec
    CPU time for update t1 t2      0.48 sec, wall time      0.01 sec
diis-c [-6.47438542e-11 -2.88540746e-02  6.09081010e-02 -4.82881738e-02
 -3.89479764e-01  1.40571391e+00]
DIIS for step 5
cycle = 6  E_corr(RCCSD) = -0.0104752265322849  dE = -5.87781506e-07  norm(t1,t2) = 1.77933e-05
    CPU time for RCCSD iter      0.56 sec, wall time      0.01 sec
    CPU time for vvvv [0:1,0:1]      0.00 sec, wall time      0.00 sec
    CPU time for vvvv [1:2,0:1]      0.08 sec, wall time      0.00 sec
    CPU time for vvvv [1:2,1:2]      0.00 sec, wall time      0.00 sec
    CPU time for vvvv      0.16 sec, wall time      0.00 sec
max_memory 499576 MB,  nocc,nvir = 5,2  blksize = 2
    CPU time for vovv [0:2]      0.08 sec, wall time      0.00 sec
    CPU time for ovvv      0.08 sec, wall time      0.00 sec
max_memory 499576 MB,  nocc,nvir = 5,2  blksize = 2
    CPU time for voov [0:2]      0.16 sec, wall time      0.00 sec
    CPU time for update t1 t2      0.40 sec, wall time      0.01 sec
diis-c [-7.60896647e-13  1.18757542e-02 -2.55927941e-02  2.37271716e-02
  1.45342130e-01 -6.18457770e-01  1.46310551e+00]
DIIS for step 6
cycle = 7  E_corr(RCCSD) = -0.0104751975961647  dE = 2.89361202e-08  norm(t1,t2) = 2.92124e-06
    CPU time for RCCSD iter      0.48 sec, wall time      0.01 sec
    CPU time for RCCSD      3.66 sec, wall time      0.05 sec
RCCSD converged
E(RCCSD) = -76.06756835711661  E_corr = -0.01047519759616467

******** <class 'pyscf.cc.eom_rccsd.EOMIP'> ********
max_space = 20
max_cycle = 50
conv_tol = 1e-07
partition = None
max_memory 500000 MB (current use 423 MB)
    CPU time for EOM-CCSD shared one-electron intermediates      0.08 sec, wall time      0.00 sec
    CPU time for EOM-CCSD shared two-electron intermediates      0.08 sec, wall time      0.00 sec
    CPU time for EOM-CCSD IP intermediates      0.16 sec, wall time      0.00 sec
tol 1e-07  toloose 0.000316228
max_cycle 50  max_space 20  max_memory 2000  incore True
davidson 0 1  |r|= 0.201  e= [0.51153414]  max|de|= 0.512  lindep=    1
davidson 1 2  |r|= 0.0306  e= [0.48087938]  max|de|= -0.0307  lindep= 0.996
davidson 2 3  |r|= 0.00903  e= [0.47868367]  max|de|= -0.0022  lindep= 0.983
davidson 3 4  |r|= 0.00123  e= [0.47845209]  max|de|= -0.000232  lindep= 0.993
davidson 4 5  |r|= 0.000147  e= [0.47841316]  max|de|= -3.89e-05  lindep= 0.99
davidson 5 6  |r|= 2.37e-05  e= [0.47840625]  max|de|= -6.91e-06  lindep= 0.901
davidson 6 7  |r|= 3.33e-06  e= [0.47840594]  max|de|= -3.12e-07  lindep= 0.928
davidson 7 8  |r|= 5.52e-07  e= [0.4784058]  max|de|= -1.41e-07  lindep= 0.933
root 0 converged  |r|= 2.33e-08  e= 0.4784057862918467  max|de|= -1.02e-08
converged 8 9  |r|= 2.33e-08  e= [0.47840579]  max|de|= -1.02e-08
EOM-CCSD root 0 E = 0.4784057862918467  qpwt = 0.983603  conv = True
    CPU time for EOM-CCSD      0.63 sec, wall time      0.01 sec

******** <class 'pyscf.cc.eom_rccsd.EOMEA'> ********
max_space = 20
max_cycle = 50
conv_tol = 1e-07
partition = None
max_memory 500000 MB (current use 423 MB)
    CPU time for EOM-CCSD shared one-electron intermediates      0.00 sec, wall time      0.00 sec
    CPU time for EOM-CCSD shared two-electron intermediates      0.05 sec, wall time      0.00 sec
    CPU time for EOM-CCSD EA intermediates      0.08 sec, wall time      0.00 sec
tol 1e-07  toloose 0.000316228
max_cycle 50  max_space 20  max_memory 2000  incore True
davidson 0 1  |r|= 0.0677  e= [0.17124434]  max|de|= 0.171  lindep=    1
davidson 1 2  |r|= 0.00883  e= [0.16806904]  max|de|= -0.00318  lindep= 0.957
davidson 2 3  |r|= 0.00174  e= [0.16793397]  max|de|= -0.000135  lindep= 0.922
davidson 3 4  |r|= 0.000482  e= [0.16793744]  max|de|= 3.47e-06  lindep= 0.908
root 0 converged  |r|= 2.62e-05  e= 0.16793747937073897  max|de|= 4.04e-08
converged 4 5  |r|= 2.62e-05  e= [0.16793748]  max|de|= 4.04e-08
EOM-CCSD root 0 E = 0.167937479370739  qpwt = 0.998618  conv = True
    CPU time for EOM-CCSD      0.29 sec, wall time      0.01 sec

******** <class 'pyscf.cc.eom_rccsd.EOMEESinglet'> ********
max_space = 20
max_cycle = 50
conv_tol = 1e-07
partition = None
max_memory 500000 MB (current use 423 MB)
    CPU time for EOM-CCSD EE intermediates      0.32 sec, wall time      0.00 sec
    CPU time for jk      0.08 sec, wall time      0.00 sec
    CPU time for df vj and vk      0.16 sec, wall time      0.00 sec
    CPU time for EOM-CCSD EE intermediates      0.32 sec, wall time      0.00 sec
tol 1e-07  toloose 0.000316228
max_cycle 50  max_space 20  max_memory 2000  incore True
    CPU time for vvvv [0:1,0:1]      0.08 sec, wall time      0.00 sec
    CPU time for vvvv [1:2,0:1]      0.00 sec, wall time      0.00 sec
    CPU time for vvvv [1:2,1:2]      0.08 sec, wall time      0.00 sec
davidson 0 1  |r|= 0.174  e= [0.34491488]  max|de|= 0.345  lindep=    1
    CPU time for vvvv [0:1,0:1]      0.08 sec, wall time      0.00 sec
    CPU time for vvvv [1:2,0:1]      0.00 sec, wall time      0.00 sec
    CPU time for vvvv [1:2,1:2]      0.08 sec, wall time      0.00 sec
davidson 1 2  |r|= 0.0354  e= [0.32586727]  max|de|= -0.019  lindep= 0.996
    CPU time for vvvv [0:1,0:1]      0.08 sec, wall time      0.00 sec
    CPU time for vvvv [1:2,0:1]      0.00 sec, wall time      0.00 sec
    CPU time for vvvv [1:2,1:2]      0.08 sec, wall time      0.00 sec
davidson 2 3  |r|= 0.00913  e= [0.32483814]  max|de|= -0.00103  lindep= 0.985
    CPU time for vvvv [0:1,0:1]      0.08 sec, wall time      0.00 sec
    CPU time for vvvv [1:2,0:1]      0.00 sec, wall time      0.00 sec
    CPU time for vvvv [1:2,1:2]      0.08 sec, wall time      0.00 sec
davidson 3 4  |r|= 0.0014  e= [0.32483242]  max|de|= -5.72e-06  lindep= 0.996
    CPU time for vvvv [0:1,0:1]      0.08 sec, wall time      0.00 sec
    CPU time for vvvv [1:2,0:1]      0.08 sec, wall time      0.00 sec
    CPU time for vvvv [1:2,1:2]      0.00 sec, wall time      0.00 sec
davidson 4 5  |r|= 0.000212  e= [0.32483319]  max|de|= 7.68e-07  lindep= 0.967
    CPU time for vvvv [0:1,0:1]      0.08 sec, wall time      0.00 sec
    CPU time for vvvv [1:2,0:1]      0.08 sec, wall time      0.00 sec
    CPU time for vvvv [1:2,1:2]      0.00 sec, wall time      0.00 sec
davidson 5 6  |r|= 2.31e-05  e= [0.32483278]  max|de|= -4.13e-07  lindep= 0.974
    CPU time for vvvv [0:1,0:1]      0.08 sec, wall time      0.00 sec
    CPU time for vvvv [1:2,0:1]      0.08 sec, wall time      0.00 sec
    CPU time for vvvv [1:2,1:2]      0.00 sec, wall time      0.00 sec
root 0 converged  |r|= 2.92e-06  e= 0.3248327702895608  max|de|= -5.02e-09
converged 6 7  |r|= 2.92e-06  e= [0.32483277]  max|de|= -5.02e-09
EOM-CCSD root 0 E = 0.3248327702895608  qpwt = 0.981373  conv = True
    CPU time for EOM-CCSD      2.86 sec, wall time      0.04 sec
    CPU time for jk      0.08 sec, wall time      0.00 sec
    CPU time for df vj and vk      0.08 sec, wall time      0.00 sec

******** <class 'pyscf.cc.dfccsd.RCCSD'> ********
CC2 = 0
CCSD nocc = 5, nmo = 8
frozen orbitals [8, 9, 10, 11, 12, 13, 14, 15, 16, 17, 18, 19, 20, 21, 22, 23, 24, 25, 26, 27, 28, 29, 30, 31, 32, 33, 34, 35, 36, 37, 38, 39, 40, 41, 42, 43, 44, 45, 46, 47, 48, 49, 50, 51, 52, 53, 54, 55, 56, 57]
max_cycle = 50
direct = 0
conv_tol = 1e-07
conv_tol_normt = 1e-05
diis_space = 6
diis_start_cycle = 0
diis_start_energy_diff = 1e+09
max_memory 500000 MB (current use 423 MB)
    CPU time for jk      0.08 sec, wall time      0.00 sec
    CPU time for df vj and vk      0.08 sec, wall time      0.00 sec
E1 = -123.10838031349735  E_coul = 37.861890546485455
Init t2, MP2 energy = -76.071200916389  E_corr(MP2) -0.0141077568685752
    CPU time for init mp2      0.08 sec, wall time      0.00 sec
Init E_corr(RCCSD) = -0.0141077568688068
    CPU time for vvvv [0:1,0:1]      0.08 sec, wall time      0.00 sec
    CPU time for vvvv [1:2,0:1]      0.08 sec, wall time      0.00 sec
    CPU time for vvvv [1:2,1:2]      0.08 sec, wall time      0.00 sec
    CPU time for vvvv [2:3,0:1]      0.08 sec, wall time      0.00 sec
    CPU time for vvvv [2:3,1:2]      0.08 sec, wall time      0.00 sec
    CPU time for vvvv [2:3,2:3]      0.08 sec, wall time      0.00 sec
    CPU time for vvvv      0.48 sec, wall time      0.01 sec
max_memory 499576 MB,  nocc,nvir = 5,3  blksize = 3
    CPU time for vovv [0:3]      0.08 sec, wall time      0.00 sec
    CPU time for ovvv      0.08 sec, wall time      0.00 sec
max_memory 499576 MB,  nocc,nvir = 5,3  blksize = 3
    CPU time for voov [0:3]      0.16 sec, wall time      0.00 sec
    CPU time for update t1 t2      0.80 sec, wall time      0.01 sec
DIIS for step 0
cycle = 1  E_corr(RCCSD) = -0.0164101095543995  dE = -0.00230235269  norm(t1,t2) = 0.0101915
    CPU time for RCCSD iter      0.80 sec, wall time      0.01 sec
    CPU time for vvvv [0:1,0:1]      0.08 sec, wall time      0.00 sec
    CPU time for vvvv [1:2,0:1]      0.08 sec, wall time      0.00 sec
    CPU time for vvvv [1:2,1:2]      0.08 sec, wall time      0.00 sec
    CPU time for vvvv [2:3,0:1]      0.51 sec, wall time      0.01 sec
    CPU time for vvvv [2:3,1:2]      0.08 sec, wall time      0.00 sec
    CPU time for vvvv [2:3,2:3]      0.08 sec, wall time      0.00 sec
    CPU time for vvvv      0.90 sec, wall time      0.01 sec
max_memory 499576 MB,  nocc,nvir = 5,3  blksize = 3
    CPU time for vovv [0:3]      0.08 sec, wall time      0.00 sec
    CPU time for ovvv      0.16 sec, wall time      0.00 sec
max_memory 499576 MB,  nocc,nvir = 5,3  blksize = 3
    CPU time for voov [0:3]      0.16 sec, wall time      0.00 sec
    CPU time for update t1 t2      1.22 sec, wall time      0.02 sec
diis-c [-1.53325239e-05  1.00000000e+00]
DIIS for step 1
cycle = 2  E_corr(RCCSD) = -0.0169412636184919  dE = -0.000531154064  norm(t1,t2) = 0.00391568
    CPU time for RCCSD iter      1.30 sec, wall time      0.02 sec
    CPU time for vvvv [0:1,0:1]      0.08 sec, wall time      0.00 sec
    CPU time for vvvv [1:2,0:1]      0.08 sec, wall time      0.00 sec
    CPU time for vvvv [1:2,1:2]      0.08 sec, wall time      0.00 sec
    CPU time for vvvv [2:3,0:1]      0.08 sec, wall time      0.00 sec
    CPU time for vvvv [2:3,1:2]      0.08 sec, wall time      0.00 sec
    CPU time for vvvv [2:3,2:3]      0.08 sec, wall time      0.00 sec
    CPU time for vvvv      0.48 sec, wall time      0.01 sec
max_memory 499576 MB,  nocc,nvir = 5,3  blksize = 3
    CPU time for vovv [0:3]      0.08 sec, wall time      0.00 sec
    CPU time for ovvv      0.16 sec, wall time      0.00 sec
max_memory 499576 MB,  nocc,nvir = 5,3  blksize = 3
    CPU time for voov [0:3]      0.16 sec, wall time      0.00 sec
    CPU time for update t1 t2      0.79 sec, wall time      0.01 sec
diis-c [-1.36726350e-06 -6.95146711e-01  1.69514671e+00]
DIIS for step 2
cycle = 3  E_corr(RCCSD) = -0.0171823867614752  dE = -0.000241123143  norm(t1,t2) = 0.00192763
    CPU time for RCCSD iter      0.87 sec, wall time      0.01 sec
    CPU time for vvvv [0:1,0:1]      0.08 sec, wall time      0.00 sec
    CPU time for vvvv [1:2,0:1]      0.08 sec, wall time      0.00 sec
    CPU time for vvvv [1:2,1:2]      0.08 sec, wall time      0.00 sec
    CPU time for vvvv [2:3,0:1]      0.08 sec, wall time      0.00 sec
    CPU time for vvvv [2:3,1:2]      0.08 sec, wall time      0.00 sec
    CPU time for vvvv [2:3,2:3]      0.08 sec, wall time      0.00 sec
    CPU time for vvvv      0.48 sec, wall time      0.01 sec
max_memory 499576 MB,  nocc,nvir = 5,3  blksize = 3
    CPU time for vovv [0:3]      0.08 sec, wall time      0.00 sec
    CPU time for ovvv      0.16 sec, wall time      0.00 sec
max_memory 499576 MB,  nocc,nvir = 5,3  blksize = 3
    CPU time for voov [0:3]      0.16 sec, wall time      0.00 sec
    CPU time for update t1 t2      0.79 sec, wall time      0.01 sec
diis-c [-9.34629507e-08  2.72711806e-01 -9.24587384e-01  1.65187558e+00]
DIIS for step 3
cycle = 4  E_corr(RCCSD) = -0.0171851102149764  dE = -2.7234535e-06  norm(t1,t2) = 0.000591456
    CPU time for RCCSD iter      0.87 sec, wall time      0.01 sec
    CPU time for vvvv [0:1,0:1]      0.08 sec, wall time      0.00 sec
    CPU time for vvvv [1:2,0:1]      0.08 sec, wall time      0.00 sec
    CPU time for vvvv [1:2,1:2]      0.08 sec, wall time      0.00 sec
    CPU time for vvvv [2:3,0:1]      0.08 sec, wall time      0.00 sec
    CPU time for vvvv [2:3,1:2]      0.08 sec, wall time      0.00 sec
    CPU time for vvvv [2:3,2:3]      0.08 sec, wall time      0.00 sec
    CPU time for vvvv      0.48 sec, wall time      0.01 sec
max_memory 499576 MB,  nocc,nvir = 5,3  blksize = 3
    CPU time for vovv [0:3]      0.00 sec, wall time      0.00 sec
    CPU time for ovvv      0.16 sec, wall time      0.00 sec
max_memory 499576 MB,  nocc,nvir = 5,3  blksize = 3
    CPU time for voov [0:3]      0.16 sec, wall time      0.00 sec
    CPU time for update t1 t2      0.79 sec, wall time      0.01 sec
diis-c [-4.15341358e-09  7.21160320e-02 -1.52283097e-01  6.97704753e-02
  1.01039659e+00]
DIIS for step 4
cycle = 5  E_corr(RCCSD) = -0.0171750701838491  dE = 1.00400311e-05  norm(t1,t2) = 0.000101802
    CPU time for RCCSD iter      0.87 sec, wall time      0.01 sec
    CPU time for vvvv [0:1,0:1]      0.08 sec, wall time      0.00 sec
    CPU time for vvvv [1:2,0:1]      0.08 sec, wall time      0.00 sec
    CPU time for vvvv [1:2,1:2]      0.08 sec, wall time      0.00 sec
    CPU time for vvvv [2:3,0:1]      0.08 sec, wall time      0.00 sec
    CPU time for vvvv [2:3,1:2]      0.08 sec, wall time      0.00 sec
    CPU time for vvvv [2:3,2:3]      0.08 sec, wall time      0.00 sec
    CPU time for vvvv      0.48 sec, wall time      0.01 sec
max_memory 499576 MB,  nocc,nvir = 5,3  blksize = 3
    CPU time for vovv [0:3]      0.00 sec, wall time      0.00 sec
    CPU time for ovvv      0.16 sec, wall time      0.00 sec
max_memory 499576 MB,  nocc,nvir = 5,3  blksize = 3
    CPU time for voov [0:3]      0.16 sec, wall time      0.00 sec
    CPU time for update t1 t2      0.80 sec, wall time      0.01 sec
diis-c [-6.60793924e-11 -2.76496716e-02  6.51120070e-02 -5.81787315e-02
 -3.68434108e-01  1.38915050e+00]
DIIS for step 5
cycle = 6  E_corr(RCCSD) = -0.0171764348321105  dE = -1.36464826e-06  norm(t1,t2) = 2.0754e-05
    CPU time for RCCSD iter      0.87 sec, wall time      0.01 sec
    CPU time for vvvv [0:1,0:1]      0.08 sec, wall time      0.00 sec
    CPU time for vvvv [1:2,0:1]      0.08 sec, wall time      0.00 sec
    CPU time for vvvv [1:2,1:2]      0.08 sec, wall time      0.00 sec
    CPU time for vvvv [2:3,0:1]      0.08 sec, wall time      0.00 sec
    CPU time for vvvv [2:3,1:2]      0.08 sec, wall time      0.00 sec
    CPU time for vvvv [2:3,2:3]      0.08 sec, wall time      0.00 sec
    CPU time for vvvv      0.48 sec, wall time      0.01 sec
max_memory 499576 MB,  nocc,nvir = 5,3  blksize = 3
    CPU time for vovv [0:3]      0.00 sec, wall time      0.00 sec
    CPU time for ovvv      0.16 sec, wall time      0.00 sec
max_memory 499576 MB,  nocc,nvir = 5,3  blksize = 3
    CPU time for voov [0:3]      0.16 sec, wall time      0.00 sec
    CPU time for update t1 t2      0.79 sec, wall time      0.01 sec
diis-c [-1.19046499e-12  1.15057303e-02 -2.78239294e-02  2.80461576e-02
  1.37470007e-01 -6.11643512e-01  1.46244555e+00]
DIIS for step 6
cycle = 7  E_corr(RCCSD) = -0.017176414510344  dE = 2.03217665e-08  norm(t1,t2) = 3.01271e-06
    CPU time for RCCSD iter      0.87 sec, wall time      0.01 sec
    CPU time for RCCSD      6.46 sec, wall time      0.09 sec
RCCSD converged
E(RCCSD) = -76.07426957403079  E_corr = -0.01717641451034405

******** <class 'pyscf.cc.eom_rccsd.EOMIP'> ********
max_space = 20
max_cycle = 50
conv_tol = 1e-07
partition = None
max_memory 500000 MB (current use 423 MB)
    CPU time for EOM-CCSD shared one-electron intermediates      0.08 sec, wall time      0.00 sec
    CPU time for EOM-CCSD shared two-electron intermediates      0.08 sec, wall time      0.00 sec
    CPU time for EOM-CCSD IP intermediates      0.16 sec, wall time      0.00 sec
tol 1e-07  toloose 0.000316228
max_cycle 50  max_space 20  max_memory 2000  incore True
davidson 0 1  |r|= 0.228  e= [0.51386304]  max|de|= 0.514  lindep=    1
davidson 1 2  |r|= 0.0316  e= [0.47943174]  max|de|= -0.0344  lindep= 0.994
davidson 2 3  |r|= 0.00934  e= [0.47713262]  max|de|= -0.0023  lindep= 0.977
davidson 3 4  |r|= 0.00128  e= [0.4769019]  max|de|= -0.000231  lindep= 0.992
davidson 4 5  |r|= 0.00016  e= [0.47686378]  max|de|= -3.81e-05  lindep= 0.99
davidson 5 6  |r|= 3.26e-05  e= [0.47685771]  max|de|= -6.07e-06  lindep= 0.929
davidson 6 7  |r|= 3.7e-06  e= [0.47685674]  max|de|= -9.77e-07  lindep= 0.956
root 0 converged  |r|= 5.6e-07  e= 0.4768566386202715  max|de|= -9.65e-08
converged 7 8  |r|= 5.6e-07  e= [0.47685664]  max|de|= -9.65e-08
EOM-CCSD root 0 E = 0.4768566386202715  qpwt = 0.982927  conv = True
    CPU time for EOM-CCSD      0.63 sec, wall time      0.01 sec

******** <class 'pyscf.cc.eom_rccsd.EOMEA'> ********
max_space = 20
max_cycle = 50
conv_tol = 1e-07
partition = None
max_memory 500000 MB (current use 423 MB)
    CPU time for EOM-CCSD shared one-electron intermediates      0.00 sec, wall time      0.00 sec
    CPU time for EOM-CCSD shared two-electron intermediates      0.07 sec, wall time      0.00 sec
    CPU time for EOM-CCSD EA intermediates      0.08 sec, wall time      0.00 sec
tol 1e-07  toloose 0.000316228
max_cycle 50  max_space 20  max_memory 2000  incore True
davidson 0 1  |r|= 0.0801  e= [0.1713632]  max|de|= 0.171  lindep=    1
davidson 1 2  |r|= 0.00875  e= [0.16750967]  max|de|= -0.00385  lindep= 0.954
davidson 2 3  |r|= 0.00174  e= [0.16736643]  max|de|= -0.000143  lindep= 0.915
davidson 3 4  |r|= 0.000437  e= [0.16736776]  max|de|= 1.33e-06  lindep= 0.943
davidson 4 5  |r|= 2.46e-05  e= [0.16736881]  max|de|= 1.05e-06  lindep= 0.983
davidson 5 6  |r|= 7.24e-07  e= [0.16736859]  max|de|= -2.17e-07  lindep= 0.945
root 0 converged  |r|= 3.54e-08  e= 0.16736858144365177  max|de|= -9.69e-09
converged 6 7  |r|= 3.54e-08  e= [0.16736858]  max|de|= -9.69e-09
EOM-CCSD root 0 E = 0.1673685814436518  qpwt = 0.998538  conv = True
    CPU time for EOM-CCSD      0.39 sec, wall time      0.01 sec

******** <class 'pyscf.cc.eom_rccsd.EOMEESinglet'> ********
max_space = 20
max_cycle = 50
conv_tol = 1e-07
partition = None
max_memory 500000 MB (current use 423 MB)
    CPU time for EOM-CCSD EE intermediates      0.21 sec, wall time      0.00 sec
    CPU time for jk      0.08 sec, wall time      0.00 sec
    CPU time for df vj and vk      0.08 sec, wall time      0.00 sec
    CPU time for EOM-CCSD EE intermediates      0.24 sec, wall time      0.00 sec
tol 1e-07  toloose 0.000316228
max_cycle 50  max_space 20  max_memory 2000  incore True
    CPU time for vvvv [0:1,0:1]      0.08 sec, wall time      0.00 sec
    CPU time for vvvv [1:2,0:1]      0.08 sec, wall time      0.00 sec
    CPU time for vvvv [1:2,1:2]      0.08 sec, wall time      0.00 sec
    CPU time for vvvv [2:3,0:1]      0.08 sec, wall time      0.00 sec
    CPU time for vvvv [2:3,1:2]      0.08 sec, wall time      0.00 sec
    CPU time for vvvv [2:3,2:3]      0.08 sec, wall time      0.00 sec
davidson 0 1  |r|= 0.21  e= [0.34721878]  max|de|= 0.347  lindep=    1
    CPU time for vvvv [0:1,0:1]      0.08 sec, wall time      0.00 sec
    CPU time for vvvv [1:2,0:1]      0.08 sec, wall time      0.00 sec
    CPU time for vvvv [1:2,1:2]      0.08 sec, wall time      0.00 sec
    CPU time for vvvv [2:3,0:1]      0.08 sec, wall time      0.00 sec
    CPU time for vvvv [2:3,1:2]      0.08 sec, wall time      0.00 sec
    CPU time for vvvv [2:3,2:3]      0.08 sec, wall time      0.00 sec
davidson 1 2  |r|= 0.0363  e= [0.32332905]  max|de|= -0.0239  lindep= 0.995
    CPU time for vvvv [0:1,0:1]      0.08 sec, wall time      0.00 sec
    CPU time for vvvv [1:2,0:1]      0.08 sec, wall time      0.00 sec
    CPU time for vvvv [1:2,1:2]      0.08 sec, wall time      0.00 sec
    CPU time for vvvv [2:3,0:1]      0.08 sec, wall time      0.00 sec
    CPU time for vvvv [2:3,1:2]      0.08 sec, wall time      0.00 sec
    CPU time for vvvv [2:3,2:3]      0.08 sec, wall time      0.00 sec
davidson 2 3  |r|= 0.0119  e= [0.32228936]  max|de|= -0.00104  lindep= 0.953
    CPU time for vvvv [0:1,0:1]      0.14 sec, wall time      0.00 sec
    CPU time for vvvv [1:2,0:1]      0.02 sec, wall time      0.00 sec
    CPU time for vvvv [1:2,1:2]      0.08 sec, wall time      0.00 sec
    CPU time for vvvv [2:3,0:1]      0.10 sec, wall time      0.00 sec
    CPU time for vvvv [2:3,1:2]      0.05 sec, wall time      0.00 sec
    CPU time for vvvv [2:3,2:3]      0.08 sec, wall time      0.00 sec
davidson 3 4  |r|= 0.00132  e= [0.32233094]  max|de|= 4.16e-05  lindep= 0.997
    CPU time for vvvv [0:1,0:1]      0.08 sec, wall time      0.00 sec
    CPU time for vvvv [1:2,0:1]      0.08 sec, wall time      0.00 sec
    CPU time for vvvv [1:2,1:2]      0.08 sec, wall time      0.00 sec
    CPU time for vvvv [2:3,0:1]      0.08 sec, wall time      0.00 sec
    CPU time for vvvv [2:3,1:2]      0.08 sec, wall time      0.00 sec
    CPU time for vvvv [2:3,2:3]      0.08 sec, wall time      0.00 sec
davidson 4 5  |r|= 0.000223  e= [0.32233547]  max|de|= 4.53e-06  lindep= 0.978
    CPU time for vvvv [0:1,0:1]      0.08 sec, wall time      0.00 sec
    CPU time for vvvv [1:2,0:1]      0.08 sec, wall time      0.00 sec
    CPU time for vvvv [1:2,1:2]      0.08 sec, wall time      0.00 sec
    CPU time for vvvv [2:3,0:1]      0.08 sec, wall time      0.00 sec
    CPU time for vvvv [2:3,1:2]      0.08 sec, wall time      0.00 sec
    CPU time for vvvv [2:3,2:3]      0.08 sec, wall time      0.00 sec
davidson 5 6  |r|= 3.17e-05  e= [0.32233462]  max|de|= -8.52e-07  lindep= 0.986
    CPU time for vvvv [0:1,0:1]      0.08 sec, wall time      0.00 sec
    CPU time for vvvv [1:2,0:1]      0.08 sec, wall time      0.00 sec
    CPU time for vvvv [1:2,1:2]      0.08 sec, wall time      0.00 sec
    CPU time for vvvv [2:3,0:1]      0.08 sec, wall time      0.00 sec
    CPU time for vvvv [2:3,1:2]      0.08 sec, wall time      0.00 sec
    CPU time for vvvv [2:3,2:3]      0.08 sec, wall time      0.00 sec
root 0 converged  |r|= 3.77e-06  e= 0.3223345583521757  max|de|= -5.9e-08
converged 6 7  |r|= 3.77e-06  e= [0.32233456]  max|de|= -5.9e-08
EOM-CCSD root 0 E = 0.3223345583521757  qpwt = 0.980688  conv = True
    CPU time for EOM-CCSD      5.22 sec, wall time      0.07 sec
    CPU time for jk      0.08 sec, wall time      0.00 sec
    CPU time for df vj and vk      0.08 sec, wall time      0.00 sec

******** <class 'pyscf.cc.dfccsd.RCCSD'> ********
CC2 = 0
CCSD nocc = 5, nmo = 9
frozen orbitals [9, 10, 11, 12, 13, 14, 15, 16, 17, 18, 19, 20, 21, 22, 23, 24, 25, 26, 27, 28, 29, 30, 31, 32, 33, 34, 35, 36, 37, 38, 39, 40, 41, 42, 43, 44, 45, 46, 47, 48, 49, 50, 51, 52, 53, 54, 55, 56, 57]
max_cycle = 50
direct = 0
conv_tol = 1e-07
conv_tol_normt = 1e-05
diis_space = 6
diis_start_cycle = 0
diis_start_energy_diff = 1e+09
max_memory 500000 MB (current use 425 MB)
    CPU time for jk      0.08 sec, wall time      0.00 sec
    CPU time for df vj and vk      0.08 sec, wall time      0.00 sec
E1 = -123.10838031349735  E_coul = 37.861890546485455
Init t2, MP2 energy = -76.0768182881309  E_corr(MP2) -0.0197251286104418
    CPU time for init mp2      0.00 sec, wall time      0.00 sec
Init E_corr(RCCSD) = -0.0197251286106753
    CPU time for vvvv [0:1,0:1]      0.16 sec, wall time      0.00 sec
    CPU time for vvvv [1:2,0:1]      0.16 sec, wall time      0.00 sec
    CPU time for vvvv [1:2,1:2]      0.08 sec, wall time      0.00 sec
    CPU time for vvvv [2:3,0:1]      0.16 sec, wall time      0.00 sec
    CPU time for vvvv [2:3,1:2]      0.08 sec, wall time      0.00 sec
    CPU time for vvvv [2:3,2:3]      0.16 sec, wall time      0.00 sec
    CPU time for vvvv [3:4,0:1]      0.08 sec, wall time      0.00 sec
    CPU time for vvvv [3:4,1:2]      0.16 sec, wall time      0.00 sec
    CPU time for vvvv [3:4,2:3]      0.08 sec, wall time      0.00 sec
    CPU time for vvvv [3:4,3:4]      0.08 sec, wall time      0.00 sec
    CPU time for vvvv      1.27 sec, wall time      0.02 sec
max_memory 499574 MB,  nocc,nvir = 5,4  blksize = 4
    CPU time for vovv [0:4]      0.08 sec, wall time      0.00 sec
    CPU time for ovvv      0.16 sec, wall time      0.00 sec
max_memory 499574 MB,  nocc,nvir = 5,4  blksize = 4
    CPU time for voov [0:4]      0.16 sec, wall time      0.00 sec
    CPU time for update t1 t2      1.59 sec, wall time      0.02 sec
DIIS for step 0
cycle = 1  E_corr(RCCSD) = -0.0221206684371464  dE = -0.00239553983  norm(t1,t2) = 0.0118295
    CPU time for RCCSD iter      1.59 sec, wall time      0.02 sec
    CPU time for vvvv [0:1,0:1]      0.08 sec, wall time      0.00 sec
    CPU time for vvvv [1:2,0:1]      0.16 sec, wall time      0.00 sec
    CPU time for vvvv [1:2,1:2]      0.08 sec, wall time      0.00 sec
    CPU time for vvvv [2:3,0:1]      0.16 sec, wall time      0.00 sec
    CPU time for vvvv [2:3,1:2]      0.08 sec, wall time      0.00 sec
    CPU time for vvvv [2:3,2:3]      0.16 sec, wall time      0.00 sec
    CPU time for vvvv [3:4,0:1]      0.16 sec, wall time      0.00 sec
    CPU time for vvvv [3:4,1:2]      0.08 sec, wall time      0.00 sec
    CPU time for vvvv [3:4,2:3]      0.08 sec, wall time      0.00 sec
    CPU time for vvvv [3:4,3:4]      0.16 sec, wall time      0.00 sec
    CPU time for vvvv      1.20 sec, wall time      0.02 sec
max_memory 499574 MB,  nocc,nvir = 5,4  blksize = 4
    CPU time for vovv [0:4]      0.08 sec, wall time      0.00 sec
    CPU time for ovvv      0.16 sec, wall time      0.00 sec
max_memory 499574 MB,  nocc,nvir = 5,4  blksize = 4
    CPU time for voov [0:4]      0.16 sec, wall time      0.00 sec
    CPU time for update t1 t2      1.51 sec, wall time      0.02 sec
diis-c [-2.87079074e-05  1.00000000e+00]
DIIS for step 1
cycle = 2  E_corr(RCCSD) = -0.0229750676423513  dE = -0.000854399205  norm(t1,t2) = 0.00535798
    CPU time for RCCSD iter      1.67 sec, wall time      0.02 sec
    CPU time for vvvv [0:1,0:1]      0.08 sec, wall time      0.00 sec
    CPU time for vvvv [1:2,0:1]      0.16 sec, wall time      0.00 sec
    CPU time for vvvv [1:2,1:2]      0.16 sec, wall time      0.00 sec
    CPU time for vvvv [2:3,0:1]      0.08 sec, wall time      0.00 sec
    CPU time for vvvv [2:3,1:2]      0.16 sec, wall time      0.00 sec
    CPU time for vvvv [2:3,2:3]      0.08 sec, wall time      0.00 sec
    CPU time for vvvv [3:4,0:1]      0.16 sec, wall time      0.00 sec
    CPU time for vvvv [3:4,1:2]      0.08 sec, wall time      0.00 sec
    CPU time for vvvv [3:4,2:3]      0.16 sec, wall time      0.00 sec
    CPU time for vvvv [3:4,3:4]      0.08 sec, wall time      0.00 sec
    CPU time for vvvv      1.20 sec, wall time      0.02 sec
max_memory 499574 MB,  nocc,nvir = 5,4  blksize = 4
    CPU time for vovv [0:4]      0.08 sec, wall time      0.00 sec
    CPU time for ovvv      0.16 sec, wall time      0.00 sec
max_memory 499574 MB,  nocc,nvir = 5,4  blksize = 4
    CPU time for voov [0:4]      0.16 sec, wall time      0.00 sec
    CPU time for update t1 t2      1.59 sec, wall time      0.02 sec
diis-c [-2.47254749e-06 -7.90787719e-01  1.79078772e+00]
DIIS for step 2
cycle = 3  E_corr(RCCSD) = -0.0234778205345039  dE = -0.000502752892  norm(t1,t2) = 0.00275471
    CPU time for RCCSD iter      1.59 sec, wall time      0.02 sec
    CPU time for vvvv [0:1,0:1]      0.16 sec, wall time      0.00 sec
    CPU time for vvvv [1:2,0:1]      0.16 sec, wall time      0.00 sec
    CPU time for vvvv [1:2,1:2]      0.08 sec, wall time      0.00 sec
    CPU time for vvvv [2:3,0:1]      0.16 sec, wall time      0.00 sec
    CPU time for vvvv [2:3,1:2]      0.08 sec, wall time      0.00 sec
    CPU time for vvvv [2:3,2:3]      0.16 sec, wall time      0.00 sec
    CPU time for vvvv [3:4,0:1]      0.08 sec, wall time      0.00 sec
    CPU time for vvvv [3:4,1:2]      0.16 sec, wall time      0.00 sec
    CPU time for vvvv [3:4,2:3]      0.08 sec, wall time      0.00 sec
    CPU time for vvvv [3:4,3:4]      0.16 sec, wall time      0.00 sec
    CPU time for vvvv      1.27 sec, wall time      0.02 sec
max_memory 499574 MB,  nocc,nvir = 5,4  blksize = 4
    CPU time for vovv [0:4]      0.08 sec, wall time      0.00 sec
    CPU time for ovvv      0.16 sec, wall time      0.00 sec
max_memory 499574 MB,  nocc,nvir = 5,4  blksize = 4
    CPU time for voov [0:4]      0.08 sec, wall time      0.00 sec
    CPU time for update t1 t2      1.59 sec, wall time      0.02 sec
diis-c [-2.56601805e-07  1.83323757e-01 -5.88114532e-01  1.40479078e+00]
DIIS for step 3
cycle = 4  E_corr(RCCSD) = -0.0235141757203373  dE = -3.63551858e-05  norm(t1,t2) = 0.000719826
    CPU time for RCCSD iter      1.67 sec, wall time      0.02 sec
    CPU time for vvvv [0:1,0:1]      0.16 sec, wall time      0.00 sec
    CPU time for vvvv [1:2,0:1]      0.08 sec, wall time      0.00 sec
    CPU time for vvvv [1:2,1:2]      0.16 sec, wall time      0.00 sec
    CPU time for vvvv [2:3,0:1]      0.08 sec, wall time      0.00 sec
    CPU time for vvvv [2:3,1:2]      0.16 sec, wall time      0.00 sec
    CPU time for vvvv [2:3,2:3]      0.08 sec, wall time      0.00 sec
    CPU time for vvvv [3:4,0:1]      0.16 sec, wall time      0.00 sec
    CPU time for vvvv [3:4,1:2]      0.08 sec, wall time      0.00 sec
    CPU time for vvvv [3:4,2:3]      0.16 sec, wall time      0.00 sec
    CPU time for vvvv [3:4,3:4]      0.08 sec, wall time      0.00 sec
    CPU time for vvvv      1.19 sec, wall time      0.02 sec
max_memory 499574 MB,  nocc,nvir = 5,4  blksize = 4
    CPU time for vovv [0:4]      0.00 sec, wall time      0.00 sec
    CPU time for ovvv      0.16 sec, wall time      0.00 sec
max_memory 499574 MB,  nocc,nvir = 5,4  blksize = 4
    CPU time for voov [0:4]      0.16 sec, wall time      0.00 sec
    CPU time for update t1 t2      1.51 sec, wall time      0.02 sec
diis-c [-1.40722520e-08  8.01066263e-02 -1.31427357e-01 -1.61226042e-01
  1.21254677e+00]
DIIS for step 4
cycle = 5  E_corr(RCCSD) = -0.0234887220585441  dE = 2.54536618e-05  norm(t1,t2) = 0.000197717
    CPU time for RCCSD iter      1.59 sec, wall time      0.02 sec
    CPU time for vvvv [0:1,0:1]      0.16 sec, wall time      0.00 sec
    CPU time for vvvv [1:2,0:1]      0.08 sec, wall time      0.00 sec
    CPU time for vvvv [1:2,1:2]      0.16 sec, wall time      0.00 sec
    CPU time for vvvv [2:3,0:1]      0.08 sec, wall time      0.00 sec
    CPU time for vvvv [2:3,1:2]      0.16 sec, wall time      0.00 sec
    CPU time for vvvv [2:3,2:3]      0.08 sec, wall time      0.00 sec
    CPU time for vvvv [3:4,0:1]      0.16 sec, wall time      0.00 sec
    CPU time for vvvv [3:4,1:2]      0.08 sec, wall time      0.00 sec
    CPU time for vvvv [3:4,2:3]      0.16 sec, wall time      0.00 sec
    CPU time for vvvv [3:4,3:4]      0.08 sec, wall time      0.00 sec
    CPU time for vvvv      1.19 sec, wall time      0.02 sec
max_memory 499574 MB,  nocc,nvir = 5,4  blksize = 4
    CPU time for vovv [0:4]      0.08 sec, wall time      0.00 sec
    CPU time for ovvv      0.16 sec, wall time      0.00 sec
max_memory 499574 MB,  nocc,nvir = 5,4  blksize = 4
    CPU time for voov [0:4]      0.16 sec, wall time      0.00 sec
    CPU time for update t1 t2      1.59 sec, wall time      0.02 sec
diis-c [-6.12352544e-10 -6.09476473e-02  1.19421916e-01 -1.98942223e-02
 -6.72928181e-01  1.63434813e+00]
DIIS for step 5
cycle = 6  E_corr(RCCSD) = -0.0234904940374989  dE = -1.77197895e-06  norm(t1,t2) = 5.70083e-05
    CPU time for RCCSD iter      1.67 sec, wall time      0.02 sec
    CPU time for vvvv [0:1,0:1]      0.08 sec, wall time      0.00 sec
    CPU time for vvvv [1:2,0:1]      0.16 sec, wall time      0.00 sec
    CPU time for vvvv [1:2,1:2]      0.08 sec, wall time      0.00 sec
    CPU time for vvvv [2:3,0:1]      0.16 sec, wall time      0.00 sec
    CPU time for vvvv [2:3,1:2]      0.16 sec, wall time      0.00 sec
    CPU time for vvvv [2:3,2:3]      0.08 sec, wall time      0.00 sec
    CPU time for vvvv [3:4,0:1]      0.16 sec, wall time      0.00 sec
    CPU time for vvvv [3:4,1:2]      0.08 sec, wall time      0.00 sec
    CPU time for vvvv [3:4,2:3]      0.16 sec, wall time      0.00 sec
    CPU time for vvvv [3:4,3:4]      0.08 sec, wall time      0.00 sec
    CPU time for vvvv      1.20 sec, wall time      0.02 sec
max_memory 499574 MB,  nocc,nvir = 5,4  blksize = 4
    CPU time for vovv [0:4]      0.08 sec, wall time      0.00 sec
    CPU time for ovvv      0.16 sec, wall time      0.00 sec
max_memory 499574 MB,  nocc,nvir = 5,4  blksize = 4
    CPU time for voov [0:4]      0.16 sec, wall time      0.00 sec
    CPU time for update t1 t2      1.51 sec, wall time      0.02 sec
diis-c [-1.32643893e-11  1.42632553e-02 -2.79931448e-02  6.32906350e-03
  1.61983932e-01 -5.02898790e-01  1.34831568e+00]
DIIS for step 6
cycle = 7  E_corr(RCCSD) = -0.0234903480828897  dE = 1.45954609e-07  norm(t1,t2) = 8.23456e-06
    CPU time for RCCSD iter      1.59 sec, wall time      0.02 sec
    CPU time for vvvv [0:1,0:1]      0.16 sec, wall time      0.00 sec
    CPU time for vvvv [1:2,0:1]      0.08 sec, wall time      0.00 sec
    CPU time for vvvv [1:2,1:2]      0.16 sec, wall time      0.00 sec
    CPU time for vvvv [2:3,0:1]      0.08 sec, wall time      0.00 sec
    CPU time for vvvv [2:3,1:2]      0.16 sec, wall time      0.00 sec
    CPU time for vvvv [2:3,2:3]      0.16 sec, wall time      0.00 sec
    CPU time for vvvv [3:4,0:1]      0.08 sec, wall time      0.00 sec
    CPU time for vvvv [3:4,1:2]      0.16 sec, wall time      0.00 sec
    CPU time for vvvv [3:4,2:3]      0.08 sec, wall time      0.00 sec
    CPU time for vvvv [3:4,3:4]      0.16 sec, wall time      0.00 sec
    CPU time for vvvv      1.27 sec, wall time      0.02 sec
max_memory 499574 MB,  nocc,nvir = 5,4  blksize = 4
    CPU time for vovv [0:4]      0.08 sec, wall time      0.00 sec
    CPU time for ovvv      0.08 sec, wall time      0.00 sec
max_memory 499574 MB,  nocc,nvir = 5,4  blksize = 4
    CPU time for voov [0:4]      0.16 sec, wall time      0.00 sec
    CPU time for update t1 t2      1.59 sec, wall time      0.02 sec
diis-c [-5.24878673e-13  1.09073925e+00 -4.17796522e-05 -5.37894228e-04
  3.64569144e-04  1.89992568e-03 -9.24240692e-02]
DIIS for step 7
cycle = 8  E_corr(RCCSD) = -0.0234903427126366  dE = 5.37025308e-09  norm(t1,t2) = 1.05203e-06
    CPU time for RCCSD iter      1.67 sec, wall time      0.02 sec
    CPU time for RCCSD     13.05 sec, wall time      0.16 sec
RCCSD converged
E(RCCSD) = -76.08058350223308  E_corr = -0.0234903427126366

******** <class 'pyscf.cc.eom_rccsd.EOMIP'> ********
max_space = 20
max_cycle = 50
conv_tol = 1e-07
partition = None
max_memory 500000 MB (current use 425 MB)
    CPU time for EOM-CCSD shared one-electron intermediates      0.08 sec, wall time      0.00 sec
    CPU time for EOM-CCSD shared two-electron intermediates      0.08 sec, wall time      0.00 sec
    CPU time for EOM-CCSD IP intermediates      0.08 sec, wall time      0.00 sec
tol 1e-07  toloose 0.000316228
max_cycle 50  max_space 20  max_memory 2000  incore True
davidson 0 1  |r|= 0.263  e= [0.51726799]  max|de|= 0.517  lindep=    1
davidson 1 2  |r|= 0.0517  e= [0.47191017]  max|de|= -0.0454  lindep= 0.994
davidson 2 3  |r|= 0.00998  e= [0.46969728]  max|de|= -0.00221  lindep= 0.979
davidson 3 4  |r|= 0.00095  e= [0.46965985]  max|de|= -3.74e-05  lindep= 0.981
davidson 4 5  |r|= 0.000251  e= [0.46963037]  max|de|= -2.95e-05  lindep= 0.963
davidson 5 6  |r|= 3.47e-05  e= [0.46962644]  max|de|= -3.93e-06  lindep= 0.95
davidson 6 7  |r|= 8.43e-06  e= [0.46962617]  max|de|= -2.67e-07  lindep= 0.967
davidson 7 8  |r|= 2.56e-06  e= [0.46962599]  max|de|= -1.77e-07  lindep= 0.947
root 0 converged  |r|= 3.33e-07  e= 0.46962600074855776  max|de|= 6.56e-09
converged 8 9  |r|= 3.33e-07  e= [0.469626]  max|de|= 6.56e-09
EOM-CCSD root 0 E = 0.4696260007485578  qpwt = 0.976079  conv = True
    CPU time for EOM-CCSD      0.60 sec, wall time      0.01 sec

******** <class 'pyscf.cc.eom_rccsd.EOMEA'> ********
max_space = 20
max_cycle = 50
conv_tol = 1e-07
partition = None
max_memory 500000 MB (current use 425 MB)
    CPU time for EOM-CCSD shared one-electron intermediates      0.00 sec, wall time      0.00 sec
    CPU time for EOM-CCSD shared two-electron intermediates      0.04 sec, wall time      0.00 sec
    CPU time for EOM-CCSD EA intermediates      0.16 sec, wall time      0.00 sec
tol 1e-07  toloose 0.000316228
max_cycle 50  max_space 20  max_memory 2000  incore True
davidson 0 1  |r|= 0.0899  e= [0.17175573]  max|de|= 0.172  lindep=    1
davidson 1 2  |r|= 0.0179  e= [0.16730766]  max|de|= -0.00445  lindep= 0.965
davidson 2 3  |r|= 0.00432  e= [0.16685384]  max|de|= -0.000454  lindep= 0.914
davidson 3 4  |r|= 0.00105  e= [0.16682872]  max|de|= -2.51e-05  lindep= 0.825
davidson 4 5  |r|= 0.000236  e= [0.16682746]  max|de|= -1.27e-06  lindep= 0.945
davidson 5 6  |r|= 5.65e-05  e= [0.16682759]  max|de|= 1.32e-07  lindep= 0.963
davidson 6 7  |r|= 1.2e-05  e= [0.16682807]  max|de|= 4.83e-07  lindep= 0.974
root 0 converged  |r|= 2.62e-06  e= 0.16682810674973014  max|de|= 3.53e-08
converged 7 8  |r|= 2.62e-06  e= [0.16682811]  max|de|= 3.53e-08
EOM-CCSD root 0 E = 0.1668281067497301  qpwt = 0.998304  conv = True
    CPU time for EOM-CCSD      0.53 sec, wall time      0.01 sec

******** <class 'pyscf.cc.eom_rccsd.EOMEESinglet'> ********
max_space = 20
max_cycle = 50
conv_tol = 1e-07
partition = None
max_memory 500000 MB (current use 425 MB)
    CPU time for EOM-CCSD EE intermediates      0.20 sec, wall time      0.00 sec
    CPU time for jk      0.08 sec, wall time      0.00 sec
    CPU time for df vj and vk      0.08 sec, wall time      0.00 sec
    CPU time for EOM-CCSD EE intermediates      0.32 sec, wall time      0.00 sec
tol 1e-07  toloose 0.000316228
max_cycle 50  max_space 20  max_memory 2000  incore True
    CPU time for vvvv [0:1,0:1]      0.16 sec, wall time      0.00 sec
    CPU time for vvvv [1:2,0:1]      0.16 sec, wall time      0.00 sec
    CPU time for vvvv [1:2,1:2]      0.08 sec, wall time      0.00 sec
    CPU time for vvvv [2:3,0:1]      0.16 sec, wall time      0.00 sec
    CPU time for vvvv [2:3,1:2]      0.08 sec, wall time      0.00 sec
    CPU time for vvvv [2:3,2:3]      0.16 sec, wall time      0.00 sec
    CPU time for vvvv [3:4,0:1]      0.08 sec, wall time      0.00 sec
    CPU time for vvvv [3:4,1:2]      0.16 sec, wall time      0.00 sec
    CPU time for vvvv [3:4,2:3]      0.08 sec, wall time      0.00 sec
    CPU time for vvvv [3:4,3:4]      0.16 sec, wall time      0.00 sec
davidson 0 1  |r|= 0.258  e= [0.3506304]  max|de|= 0.351  lindep=    1
    CPU time for vvvv [0:1,0:1]      0.16 sec, wall time      0.00 sec
    CPU time for vvvv [1:2,0:1]      0.16 sec, wall time      0.00 sec
    CPU time for vvvv [1:2,1:2]      0.08 sec, wall time      0.00 sec
    CPU time for vvvv [2:3,0:1]      0.08 sec, wall time      0.00 sec
    CPU time for vvvv [2:3,1:2]      0.16 sec, wall time      0.00 sec
    CPU time for vvvv [2:3,2:3]      0.08 sec, wall time      0.00 sec
    CPU time for vvvv [3:4,0:1]      0.16 sec, wall time      0.00 sec
    CPU time for vvvv [3:4,1:2]      0.08 sec, wall time      0.00 sec
    CPU time for vvvv [3:4,2:3]      0.16 sec, wall time      0.00 sec
    CPU time for vvvv [3:4,3:4]      0.08 sec, wall time      0.00 sec
davidson 1 2  |r|= 0.0541  e= [0.31413783]  max|de|= -0.0365  lindep= 0.996
    CPU time for vvvv [0:1,0:1]      0.16 sec, wall time      0.00 sec
    CPU time for vvvv [1:2,0:1]      0.08 sec, wall time      0.00 sec
    CPU time for vvvv [1:2,1:2]      0.16 sec, wall time      0.00 sec
    CPU time for vvvv [2:3,0:1]      0.08 sec, wall time      0.00 sec
    CPU time for vvvv [2:3,1:2]      0.08 sec, wall time      0.00 sec
    CPU time for vvvv [2:3,2:3]      0.16 sec, wall time      0.00 sec
    CPU time for vvvv [3:4,0:1]      0.08 sec, wall time      0.00 sec
    CPU time for vvvv [3:4,1:2]      0.16 sec, wall time      0.00 sec
    CPU time for vvvv [3:4,2:3]      0.08 sec, wall time      0.00 sec
    CPU time for vvvv [3:4,3:4]      0.16 sec, wall time      0.00 sec
davidson 2 3  |r|= 0.0156  e= [0.31281326]  max|de|= -0.00132  lindep= 0.886
    CPU time for vvvv [0:1,0:1]      0.08 sec, wall time      0.00 sec
    CPU time for vvvv [1:2,0:1]      0.16 sec, wall time      0.00 sec
    CPU time for vvvv [1:2,1:2]      0.08 sec, wall time      0.00 sec
    CPU time for vvvv [2:3,0:1]      0.16 sec, wall time      0.00 sec
    CPU time for vvvv [2:3,1:2]      0.08 sec, wall time      0.00 sec
    CPU time for vvvv [2:3,2:3]      0.16 sec, wall time      0.00 sec
    CPU time for vvvv [3:4,0:1]      0.08 sec, wall time      0.00 sec
    CPU time for vvvv [3:4,1:2]      0.16 sec, wall time      0.00 sec
    CPU time for vvvv [3:4,2:3]      0.08 sec, wall time      0.00 sec
    CPU time for vvvv [3:4,3:4]      0.16 sec, wall time      0.00 sec
davidson 3 4  |r|= 0.00288  e= [0.31284676]  max|de|= 3.35e-05  lindep= 0.979
    CPU time for vvvv [0:1,0:1]      0.16 sec, wall time      0.00 sec
    CPU time for vvvv [1:2,0:1]      0.16 sec, wall time      0.00 sec
    CPU time for vvvv [1:2,1:2]      0.08 sec, wall time      0.00 sec
    CPU time for vvvv [2:3,0:1]      0.08 sec, wall time      0.00 sec
    CPU time for vvvv [2:3,1:2]      0.16 sec, wall time      0.00 sec
    CPU time for vvvv [2:3,2:3]      0.08 sec, wall time      0.00 sec
    CPU time for vvvv [3:4,0:1]      0.16 sec, wall time      0.00 sec
    CPU time for vvvv [3:4,1:2]      0.08 sec, wall time      0.00 sec
    CPU time for vvvv [3:4,2:3]      0.16 sec, wall time      0.00 sec
    CPU time for vvvv [3:4,3:4]      0.08 sec, wall time      0.00 sec
davidson 4 5  |r|= 0.000687  e= [0.31284446]  max|de|= -2.3e-06  lindep= 0.929
    CPU time for vvvv [0:1,0:1]      0.16 sec, wall time      0.00 sec
    CPU time for vvvv [1:2,0:1]      0.08 sec, wall time      0.00 sec
    CPU time for vvvv [1:2,1:2]      0.16 sec, wall time      0.00 sec
    CPU time for vvvv [2:3,0:1]      0.08 sec, wall time      0.00 sec
[...]
    CPU time for vvvv [28:42,0:14]      0.63 sec, wall time      0.01 sec
    CPU time for vvvv [28:42,14:28]      0.72 sec, wall time      0.01 sec
    CPU time for vvvv [28:42,28:42]      0.64 sec, wall time      0.01 sec
    CPU time for vvvv [42:53,0:14]      0.72 sec, wall time      0.01 sec
    CPU time for vvvv [42:53,14:28]      0.64 sec, wall time      0.01 sec
    CPU time for vvvv [42:53,28:42]      0.64 sec, wall time      0.01 sec
    CPU time for vvvv [42:53,42:53]      0.64 sec, wall time      0.01 sec
    CPU time for vvvv      6.67 sec, wall time      0.08 sec
max_memory 499404 MB,  nocc,nvir = 5,53  blksize = 53
    CPU time for vovv [0:53]      0.80 sec, wall time      0.01 sec
    CPU time for ovvv      1.03 sec, wall time      0.01 sec
max_memory 499404 MB,  nocc,nvir = 5,53  blksize = 53
    CPU time for voov [0:53]      2.09 sec, wall time      0.03 sec
    CPU time for update t1 t2     10.59 sec, wall time      0.13 sec
diis-c [-1.23211302e-10 -7.98140004e-03  2.06708911e-03  7.64494762e-02
 -1.36178315e-01 -4.48875157e-01  1.51451831e+00]
DIIS for step 6
cycle = 7  E_corr(RCCSD) = -0.281248045002931  dE = -2.98945631e-06  norm(t1,t2) = 2.28756e-05
    CPU time for RCCSD iter     10.75 sec, wall time      0.14 sec
    CPU time for vvvv [0:14,0:14]      0.55 sec, wall time      0.01 sec
    CPU time for vvvv [14:28,0:14]      0.63 sec, wall time      0.01 sec
    CPU time for vvvv [14:28,14:28]      0.56 sec, wall time      0.01 sec
    CPU time for vvvv [28:42,0:14]      0.63 sec, wall time      0.01 sec
    CPU time for vvvv [28:42,14:28]      0.56 sec, wall time      0.01 sec
    CPU time for vvvv [28:42,28:42]      0.56 sec, wall time      0.01 sec
    CPU time for vvvv [42:53,0:14]      0.56 sec, wall time      0.01 sec
    CPU time for vvvv [42:53,14:28]      0.56 sec, wall time      0.01 sec
    CPU time for vvvv [42:53,28:42]      0.56 sec, wall time      0.01 sec
    CPU time for vvvv [42:53,42:53]      0.56 sec, wall time      0.01 sec
    CPU time for vvvv      5.72 sec, wall time      0.07 sec
max_memory 499403 MB,  nocc,nvir = 5,53  blksize = 53
    CPU time for vovv [0:53]      0.79 sec, wall time      0.01 sec
    CPU time for ovvv      0.95 sec, wall time      0.01 sec
max_memory 499403 MB,  nocc,nvir = 5,53  blksize = 53
    CPU time for voov [0:53]      2.46 sec, wall time      0.03 sec
    CPU time for update t1 t2      9.92 sec, wall time      0.13 sec
diis-c [-9.60106530e-12  1.19453007e+00 -6.28632862e-04  1.63019076e-03
  7.15632636e-03 -9.51062344e-04 -2.01736895e-01]
DIIS for step 7
cycle = 8  E_corr(RCCSD) = -0.281247720286315  dE = 3.24716616e-07  norm(t1,t2) = 4.78469e-06
    CPU time for RCCSD iter     10.08 sec, wall time      0.13 sec
    CPU time for vvvv [0:14,0:14]      0.55 sec, wall time      0.01 sec
    CPU time for vvvv [14:28,0:14]      0.63 sec, wall time      0.01 sec
    CPU time for vvvv [14:28,14:28]      0.56 sec, wall time      0.01 sec
    CPU time for vvvv [28:42,0:14]      0.63 sec, wall time      0.01 sec
    CPU time for vvvv [28:42,14:28]      0.56 sec, wall time      0.01 sec
    CPU time for vvvv [28:42,28:42]      0.56 sec, wall time      0.01 sec
    CPU time for vvvv [42:53,0:14]      0.56 sec, wall time      0.01 sec
    CPU time for vvvv [42:53,14:28]      0.56 sec, wall time      0.01 sec
    CPU time for vvvv [42:53,28:42]      0.56 sec, wall time      0.01 sec
    CPU time for vvvv [42:53,42:53]      0.56 sec, wall time      0.01 sec
    CPU time for vvvv      5.71 sec, wall time      0.07 sec
max_memory 499402 MB,  nocc,nvir = 5,53  blksize = 53
    CPU time for vovv [0:53]      0.80 sec, wall time      0.01 sec
    CPU time for ovvv      0.88 sec, wall time      0.01 sec
max_memory 499402 MB,  nocc,nvir = 5,53  blksize = 53
    CPU time for voov [0:53]      2.65 sec, wall time      0.04 sec
    CPU time for update t1 t2      9.80 sec, wall time      0.13 sec
diis-c [-5.78929639e-13 -3.48274039e-01  1.32942479e+00  1.52695733e-04
 -1.85799551e-03  9.71711169e-03  1.08374334e-02]
DIIS for step 8
cycle = 9  E_corr(RCCSD) = -0.281247461904572  dE = 2.58381743e-07  norm(t1,t2) = 1.29456e-06
    CPU time for RCCSD iter     10.02 sec, wall time      0.13 sec
    CPU time for vvvv [0:14,0:14]      0.55 sec, wall time      0.01 sec
    CPU time for vvvv [14:28,0:14]      0.55 sec, wall time      0.01 sec
    CPU time for vvvv [14:28,14:28]      0.63 sec, wall time      0.01 sec
    CPU time for vvvv [28:42,0:14]      0.56 sec, wall time      0.01 sec
    CPU time for vvvv [28:42,14:28]      0.56 sec, wall time      0.01 sec
    CPU time for vvvv [28:42,28:42]      0.64 sec, wall time      0.01 sec
    CPU time for vvvv [42:53,0:14]      0.56 sec, wall time      0.01 sec
    CPU time for vvvv [42:53,14:28]      0.56 sec, wall time      0.01 sec
    CPU time for vvvv [42:53,28:42]      0.56 sec, wall time      0.01 sec
    CPU time for vvvv [42:53,42:53]      0.56 sec, wall time      0.01 sec
    CPU time for vvvv      5.72 sec, wall time      0.07 sec
max_memory 499400 MB,  nocc,nvir = 5,53  blksize = 53
    CPU time for vovv [0:53]      0.80 sec, wall time      0.01 sec
    CPU time for ovvv      0.95 sec, wall time      0.01 sec
max_memory 499400 MB,  nocc,nvir = 5,53  blksize = 53
    CPU time for voov [0:53]      2.64 sec, wall time      0.04 sec
    CPU time for update t1 t2      9.58 sec, wall time      0.12 sec
diis-c [-2.71517189e-14 -6.68867308e-02 -1.65329263e-03  1.05790163e+00
 -6.62311745e-04 -1.49117191e-04  1.14498248e-02]
DIIS for step 9
cycle = 10  E_corr(RCCSD) = -0.281247450505541  dE = 1.13990306e-08  norm(t1,t2) = 2.47581e-07
    CPU time for RCCSD iter      9.82 sec, wall time      0.13 sec
    CPU time for RCCSD    102.43 sec, wall time      1.32 sec
RCCSD converged
E(RCCSD) = -76.33834061002594  E_corr = -0.2812474505055409

******** <class 'pyscf.cc.eom_rccsd.EOMIP'> ********
max_space = 20
max_cycle = 50
conv_tol = 1e-07
partition = None
max_memory 500000 MB (current use 599 MB)
    CPU time for EOM-CCSD shared one-electron intermediates      0.63 sec, wall time      0.01 sec
    CPU time for EOM-CCSD shared two-electron intermediates      1.11 sec, wall time      0.01 sec
    CPU time for EOM-CCSD IP intermediates      1.27 sec, wall time      0.02 sec
tol 1e-07  toloose 0.000316228
max_cycle 50  max_space 20  max_memory 2000  incore True
davidson 0 1  |r|= 0.412  e= [0.57718732]  max|de|= 0.577  lindep=    1
davidson 1 2  |r|= 0.0727  e= [0.45569299]  max|de|= -0.121  lindep= 0.96
davidson 2 3  |r|= 0.0091  e= [0.45528746]  max|de|= -0.000406  lindep= 0.985
davidson 3 4  |r|= 0.00247  e= [0.45578099]  max|de|= 0.000494  lindep= 0.958
davidson 4 5  |r|= 0.000305  e= [0.45579903]  max|de|= 1.8e-05  lindep= 0.967
davidson 5 6  |r|= 3.72e-05  e= [0.45580495]  max|de|= 5.91e-06  lindep= 0.943
davidson 6 7  |r|= 5.17e-06  e= [0.45580665]  max|de|= 1.71e-06  lindep= 0.967
davidson 7 8  |r|= 7.53e-07  e= [0.45580687]  max|de|= 2.15e-07  lindep= 0.957
root 0 converged  |r|= 1.06e-07  e= 0.45580688269327424  max|de|= 1.52e-08
converged 8 9  |r|= 1.06e-07  e= [0.45580688]  max|de|= 1.52e-08
EOM-CCSD root 0 E = 0.4558068826932742  qpwt = 0.958514  conv = True
    CPU time for EOM-CCSD      3.37 sec, wall time      0.06 sec

******** <class 'pyscf.cc.eom_rccsd.EOMEA'> ********
max_space = 20
max_cycle = 50
conv_tol = 1e-07
partition = None
max_memory 500000 MB (current use 599 MB)
    CPU time for EOM-CCSD shared one-electron intermediates      0.44 sec, wall time      0.01 sec
    CPU time for EOM-CCSD shared two-electron intermediates      1.03 sec, wall time      0.01 sec
    CPU time for EOM-CCSD EA intermediates      5.04 sec, wall time      0.37 sec
tol 1e-07  toloose 0.000316228
max_cycle 50  max_space 20  max_memory 2000  incore True
davidson 0 1  |r|= 0.237  e= [0.15067865]  max|de|= 0.151  lindep=    1
davidson 1 2  |r|= 0.044  e= [0.12416841]  max|de|= -0.0265  lindep= 0.993
davidson 2 3  |r|= 0.0161  e= [0.12181255]  max|de|= -0.00236  lindep= 0.976
davidson 3 4  |r|= 0.00282  e= [0.12184129]  max|de|= 2.87e-05  lindep= 0.99
davidson 4 5  |r|= 0.000694  e= [0.12184617]  max|de|= 4.88e-06  lindep= 0.995
davidson 5 6  |r|= 0.000116  e= [0.12184649]  max|de|= 3.14e-07  lindep= 0.969
davidson 6 7  |r|= 2.15e-05  e= [0.12184637]  max|de|= -1.18e-07  lindep= 0.979
root 0 converged  |r|= 4.11e-06  e= 0.12184640731202079  max|de|= 3.86e-08
converged 7 8  |r|= 4.11e-06  e= [0.12184641]  max|de|= 3.86e-08
EOM-CCSD root 0 E = 0.1218464073120208  qpwt = 0.991412  conv = True
    CPU time for EOM-CCSD     30.47 sec, wall time      0.80 sec

******** <class 'pyscf.cc.eom_rccsd.EOMEESinglet'> ********
max_space = 20
max_cycle = 50
conv_tol = 1e-07
partition = None
max_memory 500000 MB (current use 601 MB)
    CPU time for EOM-CCSD EE intermediates      7.92 sec, wall time      0.12 sec
    CPU time for jk      0.03 sec, wall time      0.00 sec
    CPU time for df vj and vk      0.03 sec, wall time      0.00 sec
    CPU time for EOM-CCSD EE intermediates      7.76 sec, wall time      0.12 sec
tol 1e-07  toloose 0.000316228
max_cycle 50  max_space 20  max_memory 2000  incore True
    CPU time for vvvv [0:14,0:14]      0.56 sec, wall time      0.01 sec
    CPU time for vvvv [14:28,0:14]      0.63 sec, wall time      0.01 sec
    CPU time for vvvv [14:28,14:28]      0.56 sec, wall time      0.01 sec
    CPU time for vvvv [28:42,0:14]      0.64 sec, wall time      0.01 sec
    CPU time for vvvv [28:42,14:28]      0.56 sec, wall time      0.01 sec
    CPU time for vvvv [28:42,28:42]      0.64 sec, wall time      0.01 sec
    CPU time for vvvv [42:53,0:14]      0.56 sec, wall time      0.01 sec
    CPU time for vvvv [42:53,14:28]      0.56 sec, wall time      0.01 sec
    CPU time for vvvv [42:53,28:42]      0.56 sec, wall time      0.01 sec
    CPU time for vvvv [42:53,42:53]      0.56 sec, wall time      0.01 sec
davidson 0 1  |r|= 0.472  e= [0.43410624]  max|de|= 0.434  lindep=    1
    CPU time for vvvv [0:14,0:14]      0.64 sec, wall time      0.01 sec
    CPU time for vvvv [14:28,0:14]      0.56 sec, wall time      0.01 sec
    CPU time for vvvv [14:28,14:28]      0.56 sec, wall time      0.01 sec
    CPU time for vvvv [28:42,0:14]      0.64 sec, wall time      0.01 sec
    CPU time for vvvv [28:42,14:28]      0.56 sec, wall time      0.01 sec
    CPU time for vvvv [28:42,28:42]      0.64 sec, wall time      0.01 sec
    CPU time for vvvv [42:53,0:14]      0.56 sec, wall time      0.01 sec
    CPU time for vvvv [42:53,14:28]      0.56 sec, wall time      0.01 sec
    CPU time for vvvv [42:53,28:42]      0.56 sec, wall time      0.01 sec
    CPU time for vvvv [42:53,42:53]      0.56 sec, wall time      0.01 sec
davidson 1 2  |r|= 0.163  e= [0.30430277]  max|de|= -0.13  lindep= 0.962
    CPU time for vvvv [0:14,0:14]      0.56 sec, wall time      0.01 sec
    CPU time for vvvv [14:28,0:14]      0.64 sec, wall time      0.01 sec
    CPU time for vvvv [14:28,14:28]      0.56 sec, wall time      0.01 sec
    CPU time for vvvv [28:42,0:14]      0.64 sec, wall time      0.01 sec
    CPU time for vvvv [28:42,14:28]      0.56 sec, wall time      0.01 sec
    CPU time for vvvv [28:42,28:42]      0.64 sec, wall time      0.01 sec
    CPU time for vvvv [42:53,0:14]      0.56 sec, wall time      0.01 sec
    CPU time for vvvv [42:53,14:28]      0.56 sec, wall time      0.01 sec
    CPU time for vvvv [42:53,28:42]      0.56 sec, wall time      0.01 sec
    CPU time for vvvv [42:53,42:53]      0.48 sec, wall time      0.01 sec
davidson 2 3  |r|= 0.0345  e= [0.2976289]  max|de|= -0.00667  lindep= 0.962
    CPU time for vvvv [0:14,0:14]      0.64 sec, wall time      0.01 sec
    CPU time for vvvv [14:28,0:14]      0.56 sec, wall time      0.01 sec
    CPU time for vvvv [14:28,14:28]      0.64 sec, wall time      0.01 sec
    CPU time for vvvv [28:42,0:14]      0.56 sec, wall time      0.01 sec
    CPU time for vvvv [28:42,14:28]      0.64 sec, wall time      0.01 sec
    CPU time for vvvv [28:42,28:42]      0.56 sec, wall time      0.01 sec
    CPU time for vvvv [42:53,0:14]      0.56 sec, wall time      0.01 sec
    CPU time for vvvv [42:53,14:28]      0.56 sec, wall time      0.01 sec
    CPU time for vvvv [42:53,28:42]      0.56 sec, wall time      0.01 sec
    CPU time for vvvv [42:53,42:53]      0.56 sec, wall time      0.01 sec
davidson 3 4  |r|= 0.0182  e= [0.29852515]  max|de|= 0.000896  lindep= 0.957
    CPU time for vvvv [0:14,0:14]      0.56 sec, wall time      0.01 sec
    CPU time for vvvv [14:28,0:14]      0.64 sec, wall time      0.01 sec
    CPU time for vvvv [14:28,14:28]      0.56 sec, wall time      0.01 sec
    CPU time for vvvv [28:42,0:14]      0.64 sec, wall time      0.01 sec
    CPU time for vvvv [28:42,14:28]      0.56 sec, wall time      0.01 sec
    CPU time for vvvv [28:42,28:42]      0.64 sec, wall time      0.01 sec
    CPU time for vvvv [42:53,0:14]      0.56 sec, wall time      0.01 sec
    CPU time for vvvv [42:53,14:28]      0.56 sec, wall time      0.01 sec
    CPU time for vvvv [42:53,28:42]      0.56 sec, wall time      0.01 sec
    CPU time for vvvv [42:53,42:53]      0.48 sec, wall time      0.01 sec
davidson 4 5  |r|= 0.00523  e= [0.29867116]  max|de|= 0.000146  lindep= 0.923
    CPU time for vvvv [0:14,0:14]      0.56 sec, wall time      0.01 sec
    CPU time for vvvv [14:28,0:14]      0.64 sec, wall time      0.01 sec
    CPU time for vvvv [14:28,14:28]      0.56 sec, wall time      0.01 sec
    CPU time for vvvv [28:42,0:14]      0.64 sec, wall time      0.01 sec
    CPU time for vvvv [28:42,14:28]      0.56 sec, wall time      0.01 sec
    CPU time for vvvv [28:42,28:42]      0.56 sec, wall time      0.01 sec
    CPU time for vvvv [42:53,0:14]      0.56 sec, wall time      0.01 sec
    CPU time for vvvv [42:53,14:28]      0.56 sec, wall time      0.01 sec
    CPU time for vvvv [42:53,28:42]      0.64 sec, wall time      0.01 sec
    CPU time for vvvv [42:53,42:53]      0.48 sec, wall time      0.01 sec
davidson 5 6  |r|= 0.00123  e= [0.29852845]  max|de|= -0.000143  lindep= 0.977
    CPU time for vvvv [0:14,0:14]      0.56 sec, wall time      0.01 sec
    CPU time for vvvv [14:28,0:14]      0.56 sec, wall time      0.01 sec
    CPU time for vvvv [14:28,14:28]      0.64 sec, wall time      0.01 sec
    CPU time for vvvv [28:42,0:14]      0.56 sec, wall time      0.01 sec
    CPU time for vvvv [28:42,14:28]      0.64 sec, wall time      0.01 sec
    CPU time for vvvv [28:42,28:42]      0.56 sec, wall time      0.01 sec
    CPU time for vvvv [42:53,0:14]      0.56 sec, wall time      0.01 sec
    CPU time for vvvv [42:53,14:28]      0.56 sec, wall time      0.01 sec
    CPU time for vvvv [42:53,28:42]      0.56 sec, wall time      0.01 sec
    CPU time for vvvv [42:53,42:53]      0.56 sec, wall time      0.01 sec
davidson 6 7  |r|= 0.000353  e= [0.29851032]  max|de|= -1.81e-05  lindep= 0.878
    CPU time for vvvv [0:14,0:14]      0.64 sec, wall time      0.01 sec
    CPU time for vvvv [14:28,0:14]      0.64 sec, wall time      0.01 sec
    CPU time for vvvv [14:28,14:28]      0.56 sec, wall time      0.01 sec
    CPU time for vvvv [28:42,0:14]      0.64 sec, wall time      0.01 sec
    CPU time for vvvv [28:42,14:28]      0.56 sec, wall time      0.01 sec
    CPU time for vvvv [28:42,28:42]      0.56 sec, wall time      0.01 sec
    CPU time for vvvv [42:53,0:14]      0.56 sec, wall time      0.01 sec
    CPU time for vvvv [42:53,14:28]      0.56 sec, wall time      0.01 sec
    CPU time for vvvv [42:53,28:42]      0.64 sec, wall time      0.01 sec
    CPU time for vvvv [42:53,42:53]      0.48 sec, wall time      0.01 sec
davidson 7 8  |r|= 9.05e-05  e= [0.29850876]  max|de|= -1.56e-06  lindep= 0.961
    CPU time for vvvv [0:14,0:14]      0.56 sec, wall time      0.01 sec
    CPU time for vvvv [14:28,0:14]      0.64 sec, wall time      0.01 sec
    CPU time for vvvv [14:28,14:28]      0.56 sec, wall time      0.01 sec
    CPU time for vvvv [28:42,0:14]      0.64 sec, wall time      0.01 sec
    CPU time for vvvv [28:42,14:28]      0.56 sec, wall time      0.01 sec
    CPU time for vvvv [28:42,28:42]      0.64 sec, wall time      0.01 sec
    CPU time for vvvv [42:53,0:14]      0.56 sec, wall time      0.01 sec
    CPU time for vvvv [42:53,14:28]      0.56 sec, wall time      0.01 sec
    CPU time for vvvv [42:53,28:42]      0.56 sec, wall time      0.01 sec
    CPU time for vvvv [42:53,42:53]      0.56 sec, wall time      0.01 sec
davidson 8 9  |r|= 2.4e-05  e= [0.29850899]  max|de|= 2.35e-07  lindep= 0.875
    CPU time for vvvv [0:14,0:14]      0.56 sec, wall time      0.01 sec
    CPU time for vvvv [14:28,0:14]      0.64 sec, wall time      0.01 sec
    CPU time for vvvv [14:28,14:28]      0.56 sec, wall time      0.01 sec
    CPU time for vvvv [28:42,0:14]      0.64 sec, wall time      0.01 sec
    CPU time for vvvv [28:42,14:28]      0.56 sec, wall time      0.01 sec
    CPU time for vvvv [28:42,28:42]      0.56 sec, wall time      0.01 sec
    CPU time for vvvv [42:53,0:14]      0.64 sec, wall time      0.01 sec
    CPU time for vvvv [42:53,14:28]      0.56 sec, wall time      0.01 sec
    CPU time for vvvv [42:53,28:42]      0.56 sec, wall time      0.01 sec
    CPU time for vvvv [42:53,42:53]      0.48 sec, wall time      0.01 sec
davidson 9 10  |r|= 7.93e-06  e= [0.29850918]  max|de|= 1.84e-07  lindep= 0.905
    CPU time for vvvv [0:14,0:14]      0.56 sec, wall time      0.01 sec
    CPU time for vvvv [14:28,0:14]      0.64 sec, wall time      0.01 sec
    CPU time for vvvv [14:28,14:28]      0.56 sec, wall time      0.01 sec
    CPU time for vvvv [28:42,0:14]      0.64 sec, wall time      0.01 sec
    CPU time for vvvv [28:42,14:28]      0.56 sec, wall time      0.01 sec
    CPU time for vvvv [28:42,28:42]      0.56 sec, wall time      0.01 sec
    CPU time for vvvv [42:53,0:14]      0.56 sec, wall time      0.01 sec
    CPU time for vvvv [42:53,14:28]      0.56 sec, wall time      0.01 sec
    CPU time for vvvv [42:53,28:42]      0.56 sec, wall time      0.01 sec
    CPU time for vvvv [42:53,42:53]      0.56 sec, wall time      0.01 sec
root 0 converged  |r|= 1.84e-06  e= 0.29850916478056666  max|de|= -1.06e-08
converged 10 11  |r|= 1.84e-06  e= [0.29850916]  max|de|= -1.06e-08
EOM-CCSD root 0 E = 0.2985091647805667  qpwt = 0.95603  conv = True
    CPU time for EOM-CCSD    101.64 sec, wall time      1.33 sec
1 0.483750 0.168708 0.324768
2 0.478406 0.167937 0.324833
3 0.476857 0.167369 0.322335
4 0.469626 0.166828 0.312841
5 0.468384 0.167374 0.315072
6 0.461941 0.164572 0.311646
7 0.462822 0.162028 0.311200
8 0.454504 0.161485 0.307462
9 0.455072 0.160418 0.306717
10 0.451904 0.152610 0.304154
11 0.450731 0.150633 0.305133
12 0.450716 0.150268 0.304956
13 0.450404 0.150232 0.304315
14 0.450225 0.145055 0.301695
15 0.450525 0.143761 0.301341
16 0.450829 0.143302 0.302026
17 0.451208 0.142660 0.301278
18 0.452507 0.142025 0.301843
19 0.454440 0.140858 0.303177
20 0.454667 0.140561 0.303110
21 0.454492 0.140548 0.303096
22 0.454590 0.140464 0.303121
23 0.454722 0.140417 0.303184
24 0.454884 0.140326 0.303228
25 0.454965 0.140273 0.303252
26 0.453695 0.138988 0.302154
27 0.453825 0.138954 0.302237
28 0.453903 0.138899 0.302258
29 0.454057 0.138849 0.302357
30 0.453062 0.137974 0.301455
31 0.452914 0.137950 0.301372
32 0.452948 0.137352 0.300929
33 0.453206 0.137233 0.301022
34 0.453335 0.137111 0.301092
35 0.453286 0.137115 0.301093
36 0.449776 0.133859 0.298205
37 0.449892 0.133757 0.298142
38 0.450347 0.133136 0.297677
39 0.450984 0.133119 0.298370
40 0.451628 0.133125 0.298958
41 0.451945 0.132627 0.299037
42 0.452369 0.132495 0.299198
43 0.451709 0.124278 0.297210
44 0.453008 0.123181 0.297020
45 0.453805 0.122411 0.297635
46 0.453949 0.122276 0.297494
47 0.454002 0.122269 0.297553
48 0.454638 0.122113 0.297913
49 0.454945 0.122082 0.298153
50 0.455551 0.122058 0.298735
51 0.455520 0.122049 0.298676
52 0.455517 0.121938 0.298432
53 0.455807 0.121846 0.298509
